Gromacs Runs On Most of All Computer Systems in water t= 570.00000 step= 570000
11558
    1RG35     P    1   2.141   2.879   4.448
    1RG35   O1P    2   2.108   2.813   4.317
    1RG35   O2P    3   2.061   2.998   4.468
    1RG35   O5'    4   2.086   2.779   4.562
    1RG35   C5'    5   1.950   2.780   4.595
    1RG35  H5'1    6   1.891   2.768   4.504
    1RG35  H5'2    7   1.915   2.875   4.635
    1RG35   C4'    8   1.891   2.672   4.687
    1RG35   H4'    9   1.793   2.705   4.720
    1RG35   O4'   10   1.878   2.550   4.617
    1RG35   C1'   11   1.956   2.457   4.687
    1RG35   H1'   12   1.899   2.401   4.761
    1RG35    N9   13   2.008   2.360   4.580
    1RG35    C8   14   2.078   2.393   4.472
    1RG35    H8   15   2.114   2.491   4.446
    1RG35    N7   16   2.093   2.301   4.383
    1RG35    C5   17   2.028   2.194   4.443
    1RG35    C6   18   2.003   2.057   4.398
    1RG35    O6   19   2.029   2.003   4.287
    1RG35    N1   20   1.944   1.980   4.495
    1RG35    H1   21   1.915   1.886   4.471
    1RG35    C2   22   1.900   2.027   4.608
    1RG35    N2   23   1.828   1.944   4.682
    1RG35   H21   24   1.804   1.853   4.645
    1RG35   H22   25   1.780   1.981   4.763
    1RG35    N3   26   1.908   2.152   4.655
    1RG35    C4   27   1.970   2.229   4.561
    1RG35   C3'   28   1.974   2.650   4.813
    1RG35   H3'   29   2.034   2.740   4.829
    1RG35   C2'   30   2.061   2.541   4.754
    1RG35  H2'1   31   2.138   2.572   4.684
    1RG35   O2'   32   2.142   2.470   4.842
    1RG35  HO'2   33   2.208   2.536   4.864
    1RG35   O3'   34   1.903   2.604   4.928
    1RG35   H3T   35   1.967   2.543   4.965
    1RG35   O3P   36   2.286   2.899   4.465
    2SOL     OW   37   0.494   0.137   0.390
    2SOL    HW2   38   0.497   0.045   0.362
    2SOL    HW3   39   0.584   0.167   0.381
    2SOL    MW4   40   0.506   0.129   0.385
    3SOL     OW   41   4.095   0.111   0.409
    3SOL    HW2   42   4.182   0.147   0.426
    3SOL    HW3   43   4.106   0.017   0.419
    3SOL    MW4   44   4.108   0.104   0.413
    4SOL     OW   45   3.840   0.484   0.467
    4SOL    HW2   46   3.792   0.552   0.421
    4SOL    HW3   47   3.827   0.503   0.560
    4SOL    MW4   48   3.832   0.495   0.473
    5SOL     OW   49   0.291   1.514   0.451
    5SOL    HW2   50   0.311   1.420   0.447
    5SOL    HW3   51   0.196   1.518   0.459
    5SOL    MW4   52   0.281   1.502   0.451
    6SOL     OW   53   1.395   0.698   0.471
    6SOL    HW2   54   1.403   0.737   0.558
    6SOL    HW3   55   1.460   0.743   0.417
    6SOL    MW4   56   1.404   0.709   0.475
    7SOL     OW   57   0.201   0.507   0.471
    7SOL    HW2   58   0.207   0.489   0.565
    7SOL    HW3   59   0.220   0.422   0.430
    7SOL    MW4   60   0.204   0.493   0.478
    8SOL     OW   61   0.434   0.961   0.482
    8SOL    HW2   62   0.441   0.940   0.576
    8SOL    HW3   63   0.437   0.876   0.438
    8SOL    MW4   64   0.435   0.947   0.489
    9SOL     OW   65   0.901   0.926   0.465
    9SOL    HW2   66   0.886   0.921   0.560
    9SOL    HW3   67   0.823   0.968   0.430
    9SOL    MW4   68   0.889   0.931   0.473
   10SOL     OW   69   0.687   1.084   0.411
   10SOL    HW2   70   0.646   1.101   0.326
   10SOL    HW3   71   0.614   1.057   0.467
   10SOL    MW4   72   0.672   1.083   0.407
   11SOL     OW   73   4.340   1.837   0.337
   11SOL    HW2   74   4.251   1.803   0.348
   11SOL    HW3   75   4.359   1.823   0.244
   11SOL    MW4   76   4.330   1.831   0.326
   12SOL     OW   77   4.077   2.334   0.572
   12SOL    HW2   78   3.991   2.294   0.583
   12SOL    HW3   79   4.058   2.427   0.559
   12SOL    MW4   80   4.063   2.341   0.572
   13SOL     OW   81   0.022   1.643   0.465
   13SOL    HW2   82   0.028   1.665   0.558
   13SOL    HW3   83  -0.019   1.719   0.425
   13SOL    MW4   84   0.017   1.656   0.472
   14SOL     OW   85   0.667   2.318   0.187
   14SOL    HW2   86   0.746   2.303   0.238
   14SOL    HW3   87   0.662   2.413   0.176
   14SOL    MW4   88   0.677   2.328   0.192
   15SOL     OW   89   0.187   2.712   0.387
   15SOL    HW2   90   0.190   2.798   0.344
   15SOL    HW3   91   0.278   2.686   0.396
   15SOL    MW4   92   0.199   2.720   0.382
   16SOL     OW   93   4.122   3.355   0.474
   16SOL    HW2   94   4.148   3.272   0.434
   16SOL    HW3   95   4.101   3.333   0.565
   16SOL    MW4   96   4.123   3.341   0.481
   17SOL     OW   97   0.205   3.032   0.480
   17SOL    HW2   98   0.284   3.085   0.492
   17SOL    HW3   99   0.141   3.093   0.443
   17SOL    MW4  100   0.207   3.047   0.477
   18SOL     OW  101   0.554   3.406   0.374
   18SOL    HW2  102   0.615   3.373   0.309
   18SOL    HW3  103   0.601   3.479   0.415
   18SOL    MW4  104   0.568   3.412   0.371
   19SOL     OW  105   0.656   3.849   0.351
   19SOL    HW2  106   0.713   3.822   0.279
   19SOL    HW3  107   0.694   3.931   0.383
   19SOL    MW4  108   0.668   3.856   0.346
   20SOL     OW  109   4.243   3.864   0.436
   20SOL    HW2  110   4.274   3.893   0.522
   20SOL    HW3  111   4.259   3.769   0.436
   20SOL    MW4  112   4.249   3.855   0.447
   21SOL     OW  113   0.125   3.744   0.198
   21SOL    HW2  114   0.203   3.772   0.246
   21SOL    HW3  115   0.144   3.764   0.107
   21SOL    MW4  116   0.138   3.750   0.193
   22SOL     OW  117   0.018   4.447   0.434
   22SOL    HW2  118  -0.029   4.381   0.383
   22SOL    HW3  119  -0.024   4.445   0.520
   22SOL    MW4  120   0.006   4.438   0.439
   23SOL     OW  121   4.373   4.237   0.315
   23SOL    HW2  122   4.416   4.152   0.304
   23SOL    HW3  123   4.280   4.217   0.311
   23SOL    MW4  124   4.367   4.223   0.313
   24SOL     OW  125   4.475   3.979   0.299
   24SOL    HW2  126   4.407   3.944   0.357
   24SOL    HW3  127   4.511   3.901   0.256
   24SOL    MW4  128   4.471   3.964   0.301
   25SOL     OW  129   0.457   3.160   0.511
   25SOL    HW2  130   0.480   3.181   0.602
   25SOL    HW3  131   0.493   3.233   0.460
   25SOL    MW4  132   0.464   3.172   0.517
   26SOL     OW  133   0.469   4.531   0.440
   26SOL    HW2  134   0.471   4.566   0.529
   26SOL    HW3  135   0.388   4.479   0.436
   26SOL    MW4  136   0.459   4.529   0.451
   27SOL     OW  137   0.258   0.264   0.360
   27SOL    HW2  138   0.206   0.185   0.373
   27SOL    HW3  139   0.348   0.231   0.348
   27SOL    MW4  140   0.263   0.249   0.360
   28SOL     OW  141   0.018   0.678   0.349
   28SOL    HW2  142   0.047   0.688   0.258
   28SOL    HW3  143   0.095   0.642   0.394
   28SOL    MW4  144   0.032   0.675   0.343
   29SOL     OW  145   0.985   4.488   0.366
   29SOL    HW2  146   1.032   4.427   0.424
   29SOL    HW3  147   0.893   4.476   0.389
   29SOL    MW4  148   0.979   4.478   0.377
   30SOL     OW  149   1.179   0.906   0.374
   30SOL    HW2  150   1.090   0.896   0.405
   30SOL    HW3  151   1.234   0.876   0.447
   30SOL    MW4  152   1.175   0.901   0.388
   31SOL     OW  153   0.652   0.484   0.481
   31SOL    HW2  154   0.725   0.544   0.465
   31SOL    HW3  155   0.682   0.401   0.444
   31SOL    MW4  156   0.666   0.481   0.474
   32SOL     OW  157   0.280   1.214   0.459
   32SOL    HW2  158   0.313   1.125   0.469
   32SOL    HW3  159   0.191   1.203   0.426
   32SOL    MW4  160   0.272   1.201   0.456
   33SOL     OW  161   0.094   2.103   0.170
   33SOL    HW2  162   0.038   2.152   0.230
   33SOL    HW3  163   0.042   2.027   0.144
   33SOL    MW4  164   0.080   2.100   0.175
   34SOL     OW  165   0.323   1.747   0.269
   34SOL    HW2  166   0.249   1.729   0.211
   34SOL    HW3  167   0.327   1.671   0.327
   34SOL    MW4  168   0.314   1.735   0.269
   35SOL     OW  169   0.862   2.717   0.199
   35SOL    HW2  170   0.935   2.667   0.235
   35SOL    HW3  171   0.865   2.800   0.247
   35SOL    MW4  172   0.872   2.721   0.210
   36SOL     OW  173   0.634   2.587   0.157
   36SOL    HW2  174   0.625   2.590   0.062
   36SOL    HW3  175   0.723   2.618   0.174
   36SOL    MW4  176   0.644   2.591   0.147
   37SOL     OW  177   3.858   2.227   0.219
   37SOL    HW2  178   3.859   2.227   0.124
   37SOL    HW3  179   3.947   2.253   0.244
   37SOL    MW4  180   3.870   2.231   0.210
   38SOL     OW  181   1.299   2.452   0.417
   38SOL    HW2  182   1.296   2.360   0.389
   38SOL    HW3  183   1.370   2.490   0.366
   38SOL    MW4  184   1.308   2.445   0.406
   39SOL     OW  185   0.485   2.381   0.451
   39SOL    HW2  186   0.482   2.472   0.422
   39SOL    HW3  187   0.576   2.366   0.475
   39SOL    MW4  188   0.496   2.391   0.450
   40SOL     OW  189   4.262   3.161   0.331
   40SOL    HW2  190   4.238   3.168   0.238
   40SOL    HW3  191   4.225   3.078   0.360
   40SOL    MW4  192   4.254   3.151   0.322
   41SOL     OW  193   0.480   2.658   0.371
   41SOL    HW2  194   0.532   2.640   0.292
   41SOL    HW3  195   0.516   2.739   0.406
   41SOL    MW4  196   0.492   2.666   0.365
   42SOL     OW  197   0.930   0.409   0.203
   42SOL    HW2  198   0.879   0.414   0.123
   42SOL    HW3  199   0.908   0.489   0.251
   42SOL    MW4  200   0.921   0.420   0.199
   43SOL     OW  201   0.316   3.582   0.480
   43SOL    HW2  202   0.341   3.668   0.445
   43SOL    HW3  203   0.369   3.520   0.430
   43SOL    MW4  204   0.327   3.585   0.469
   44SOL     OW  205   0.716   3.606   0.484
   44SOL    HW2  206   0.691   3.691   0.448
   44SOL    HW3  207   0.713   3.619   0.579
   44SOL    MW4  208   0.712   3.619   0.492
   45SOL     OW  209   1.139   3.565   0.465
   45SOL    HW2  210   1.074   3.518   0.413
   45SOL    HW3  211   1.221   3.520   0.448
   45SOL    MW4  212   1.141   3.553   0.456
   46SOL     OW  213   0.275   4.337   0.478
   46SOL    HW2  214   0.187   4.358   0.447
   46SOL    HW3  215   0.280   4.242   0.476
   46SOL    MW4  216   0.264   4.327   0.473
   47SOL     OW  217   0.874   3.471   0.305
   47SOL    HW2  218   0.862   3.538   0.237
   47SOL    HW3  219   0.831   3.507   0.382
   47SOL    MW4  220   0.867   3.485   0.306
   48SOL     OW  221   0.713   4.395   0.433
   48SOL    HW2  222   0.626   4.432   0.416
   48SOL    HW3  223   0.718   4.389   0.528
   48SOL    MW4  224   0.702   4.399   0.443
   49SOL     OW  225   0.764   0.254   0.360
   49SOL    HW2  226   0.834   0.205   0.404
   49SOL    HW3  227   0.810   0.311   0.299
   49SOL    MW4  228   0.780   0.255   0.358
   50SOL     OW  229   0.872   0.644   0.404
   50SOL    HW2  230   0.875   0.739   0.398
   50SOL    HW3  231   0.959   0.619   0.437
   50SOL    MW4  232   0.884   0.653   0.408
   51SOL     OW  233   0.445   0.655   0.395
   51SOL    HW2  234   0.365   0.609   0.421
   51SOL    HW3  235   0.516   0.594   0.417
   51SOL    MW4  236   0.444   0.641   0.402
   52SOL     OW  237   1.535   0.459   0.399
   52SOL    HW2  238   1.548   0.425   0.487
   52SOL    HW3  239   1.484   0.539   0.410
   52SOL    MW4  240   1.530   0.465   0.412
   53SOL     OW  241   1.916   0.729   0.410
   53SOL    HW2  242   1.829   0.763   0.430
   53SOL    HW3  243   1.915   0.716   0.315
   53SOL    MW4  244   1.905   0.732   0.400
   54SOL     OW  245   1.376   0.027   0.087
   54SOL    HW2  246   1.374   0.103   0.145
   54SOL    HW3  247   1.362   0.063  -0.001
   54SOL    MW4  248   1.374   0.042   0.083
   55SOL     OW  249   0.859   1.631   0.443
   55SOL    HW2  250   0.797   1.558   0.447
   55SOL    HW3  251   0.868   1.661   0.533
   55SOL    MW4  252   0.852   1.626   0.455
   56SOL     OW  253   0.770   1.341   0.483
   56SOL    HW2  254   0.749   1.251   0.460
   56SOL    HW3  255   0.866   1.346   0.475
   56SOL    MW4  256   0.780   1.330   0.479
   57SOL     OW  257   1.295   1.401   0.255
   57SOL    HW2  258   1.234   1.467   0.289
   57SOL    HW3  259   1.271   1.391   0.163
   57SOL    MW4  260   1.284   1.409   0.247
   58SOL     OW  261   1.039   1.334   0.507
   58SOL    HW2  262   1.112   1.274   0.488
   58SOL    HW3  263   1.053   1.408   0.448
   58SOL    MW4  264   1.051   1.336   0.497
   59SOL     OW  265   1.118   1.577   0.366
   59SOL    HW2  266   1.173   1.650   0.395
   59SOL    HW3  267   1.029   1.604   0.388
   59SOL    MW4  268   1.113   1.590   0.372
   60SOL     OW  269   4.389   2.281   0.351
   60SOL    HW2  270   4.297   2.303   0.336
   60SOL    HW3  271   4.429   2.363   0.381
   60SOL    MW4  272   4.382   2.295   0.353
   61SOL     OW  273   4.450   1.862   0.085
   61SOL    HW2  274   4.505   1.783   0.083
   61SOL    HW3  275   4.411   1.866  -0.002
   61SOL    MW4  276   4.452   1.852   0.073
   62SOL     OW  277   0.629   2.073   0.435
   62SOL    HW2  278   0.684   2.140   0.476
   62SOL    HW3  279   0.691   2.007   0.404
   62SOL    MW4  280   0.645   2.073   0.437
   63SOL     OW  281   0.337   2.029   0.292
   63SOL    HW2  282   0.248   2.047   0.262
   63SOL    HW3  283   0.339   1.934   0.304
   63SOL    MW4  284   0.325   2.019   0.290
   64SOL     OW  285   0.763   2.300   0.526
   64SOL    HW2  286   0.833   2.304   0.461
   64SOL    HW3  287   0.798   2.345   0.602
   64SOL    MW4  288   0.777   2.306   0.527
   65SOL     OW  289   0.932   2.318   0.316
   65SOL    HW2  290   1.002   2.268   0.275
   65SOL    HW3  291   0.973   2.402   0.339
   65SOL    MW4  292   0.947   2.323   0.314
   66SOL     OW  293   0.588   2.900   0.482
   66SOL    HW2  294   0.535   2.979   0.480
   66SOL    HW3  295   0.616   2.892   0.574
   66SOL    MW4  296   0.585   2.909   0.494
   67SOL     OW  297   0.904   3.234   0.427
   67SOL    HW2  298   0.909   3.267   0.517
   67SOL    HW3  299   0.900   3.312   0.372
   67SOL    MW4  300   0.904   3.249   0.432
   68SOL     OW  301   2.194   3.593   0.470
   68SOL    HW2  302   2.155   3.607   0.557
   68SOL    HW3  303   2.124   3.554   0.418
   68SOL    MW4  304   2.180   3.590   0.475
   69SOL     OW  305   0.989   4.027   0.532
   69SOL    HW2  306   0.910   4.072   0.504
   69SOL    HW3  307   0.971   4.000   0.622
   69SOL    MW4  308   0.976   4.030   0.540
   70SOL     OW  309   0.733   4.112   0.473
   70SOL    HW2  310   0.658   4.098   0.531
   70SOL    HW3  311   0.723   4.202   0.443
   70SOL    MW4  312   0.722   4.122   0.477
   71SOL     OW  313   1.114   4.262   0.505
   71SOL    HW2  314   1.090   4.170   0.500
   71SOL    HW3  315   1.094   4.287   0.595
   71SOL    MW4  316   1.109   4.254   0.516
   72SOL     OW  317   1.126   0.571   0.487
   72SOL    HW2  318   1.126   0.487   0.440
   72SOL    HW3  319   1.200   0.619   0.449
   72SOL    MW4  320   1.136   0.566   0.475
   73SOL     OW  321   0.981   0.094   0.441
   73SOL    HW2  322   1.007   0.008   0.408
   73SOL    HW3  323   0.953   0.078   0.531
   73SOL    MW4  324   0.981   0.080   0.449
   74SOL     OW  325   1.401   0.235   0.274
   74SOL    HW2  326   1.316   0.275   0.291
   74SOL    HW3  327   1.464   0.306   0.288
   74SOL    MW4  328   1.398   0.250   0.278
   75SOL     OW  329   2.204   0.010   0.332
   75SOL    HW2  330   2.220  -0.084   0.318
   75SOL    HW3  331   2.108   0.018   0.331
   75SOL    MW4  332   2.193  -0.002   0.330
   76SOL     OW  333   1.148   0.312   0.355
   76SOL    HW2  334   1.107   0.229   0.379
   76SOL    HW3  335   1.085   0.354   0.296
   76SOL    MW4  336   1.134   0.307   0.351
   77SOL     OW  337   2.278   0.492   0.404
   77SOL    HW2  338   2.183   0.499   0.415
   77SOL    HW3  339   2.298   0.402   0.428
   77SOL    MW4  340   2.268   0.481   0.409
   78SOL     OW  341   2.392   0.931   0.509
   78SOL    HW2  342   2.403   0.909   0.416
   78SOL    HW3  343   2.299   0.952   0.517
   78SOL    MW4  344   2.381   0.931   0.498
   79SOL     OW  345   1.538   1.108   0.485
   79SOL    HW2  346   1.442   1.112   0.475
   79SOL    HW3  347   1.571   1.173   0.424
   79SOL    MW4  348   1.529   1.117   0.476
   80SOL     OW  349   1.666   0.854   0.468
   80SOL    HW2  350   1.714   0.850   0.550
   80SOL    HW3  351   1.618   0.937   0.471
   80SOL    MW4  352   1.666   0.865   0.479
   81SOL     OW  353   1.273   1.160   0.451
   81SOL    HW2  354   1.237   1.079   0.414
   81SOL    HW3  355   1.294   1.214   0.374
   81SOL    MW4  356   1.271   1.157   0.436
   82SOL     OW  357   1.694   1.535   0.416
   82SOL    HW2  358   1.785   1.537   0.445
   82SOL    HW3  359   1.644   1.516   0.495
   82SOL    MW4  360   1.699   1.533   0.430
   83SOL     OW  361   1.040   2.572   0.361
   83SOL    HW2  362   1.134   2.554   0.374
   83SOL    HW3  363   1.017   2.628   0.435
   83SOL    MW4  364   1.050   2.577   0.373
   84SOL     OW  365   1.535   2.546   0.284
   84SOL    HW2  366   1.549   2.519   0.193
   84SOL    HW3  367   1.610   2.508   0.331
   84SOL    MW4  368   1.547   2.537   0.278
   85SOL     OW  369   2.239   1.597   0.465
   85SOL    HW2  370   2.302   1.528   0.446
   85SOL    HW3  371   2.277   1.675   0.425
   85SOL    MW4  372   2.252   1.598   0.457
   86SOL     OW  373   1.548   2.070   0.405
   86SOL    HW2  374   1.633   2.115   0.400
   86SOL    HW3  375   1.568   1.979   0.386
   86SOL    MW4  376   1.562   2.064   0.402
   87SOL     OW  377   0.858   1.915   0.392
   87SOL    HW2  378   0.863   1.820   0.384
   87SOL    HW3  379   0.948   1.943   0.404
   87SOL    MW4  380   0.870   1.906   0.392
   88SOL     OW  381   0.844   2.926   0.417
   88SOL    HW2  382   0.869   3.018   0.427
   88SOL    HW3  383   0.750   2.924   0.436
   88SOL    MW4  384   0.835   2.938   0.420
   89SOL     OW  385   1.962   2.205   0.465
   89SOL    HW2  386   1.966   2.126   0.519
   89SOL    HW3  387   2.052   2.218   0.434
   89SOL    MW4  388   1.974   2.196   0.468
   90SOL     OW  389   1.959   0.447   0.472
   90SOL    HW2  390   1.909   0.525   0.447
   90SOL    HW3  391   1.909   0.374   0.434
   90SOL    MW4  392   1.946   0.448   0.463
   91SOL     OW  393   1.101   3.831   0.346
   91SOL    HW2  394   1.128   3.758   0.402
   91SOL    HW3  395   1.050   3.888   0.405
   91SOL    MW4  396   1.098   3.829   0.361
   92SOL     OW  397   2.119   2.683   0.422
   92SOL    HW2  398   2.100   2.776   0.411
   92SOL    HW3  399   2.126   2.671   0.517
   92SOL    MW4  400   2.117   2.694   0.433
   93SOL     OW  401   1.347   3.963   0.408
   93SOL    HW2  402   1.268   3.941   0.359
   93SOL    HW3  403   1.354   4.058   0.403
   93SOL    MW4  404   1.338   3.972   0.401
   94SOL     OW  405   1.757   3.064   0.410
   94SOL    HW2  406   1.847   3.033   0.400
   94SOL    HW3  407   1.703   2.989   0.387
   94SOL    MW4  408   1.762   3.050   0.406
   95SOL     OW  409   2.226   3.872   0.417
   95SOL    HW2  410   2.216   3.777   0.426
   95SOL    HW3  411   2.313   3.883   0.378
   95SOL    MW4  412   2.237   3.861   0.413
   96SOL     OW  413   0.868   3.727   0.199
   96SOL    HW2  414   0.894   3.741   0.108
   96SOL    HW3  415   0.940   3.763   0.251
   96SOL    MW4  416   0.881   3.734   0.194
   97SOL     OW  417   1.907   0.039   0.328
   97SOL    HW2  418   1.864   0.124   0.335
   97SOL    HW3  419   1.837  -0.025   0.344
   97SOL    MW4  420   1.892   0.042   0.331
   98SOL     OW  421   2.048   0.002   0.634
   98SOL    HW2  422   2.042  -0.089   0.661
   98SOL    HW3  423   2.016   0.002   0.544
   98SOL    MW4  424   2.043  -0.010   0.626
   99SOL     OW  425   2.551   4.389   0.156
   99SOL    HW2  426   2.616   4.441   0.204
   99SOL    HW3  427   2.543   4.433   0.072
   99SOL    MW4  428   2.559   4.402   0.151
  100SOL     OW  429   1.369   4.248   0.399
  100SOL    HW2  430   1.285   4.256   0.444
  100SOL    HW3  431   1.381   4.332   0.355
  100SOL    MW4  432   1.359   4.260   0.399
  101SOL     OW  433   2.540   0.574   0.416
  101SOL    HW2  434   2.458   0.530   0.396
  101SOL    HW3  435   2.535   0.657   0.370
  101SOL    MW4  436   2.529   0.579   0.408
  102SOL     OW  437   1.554   1.758   0.351
  102SOL    HW2  438   1.530   1.739   0.261
  102SOL    HW3  439   1.623   1.695   0.372
  102SOL    MW4  440   1.560   1.748   0.342
  103SOL     OW  441   1.992   1.215   0.476
  103SOL    HW2  442   2.068   1.218   0.418
  103SOL    HW3  443   1.961   1.306   0.480
  103SOL    MW4  444   1.998   1.228   0.469
  104SOL     OW  445   2.518   1.186   0.530
  104SOL    HW2  446   2.607   1.187   0.495
  104SOL    HW3  447   2.493   1.093   0.530
  104SOL    MW4  448   2.526   1.174   0.525
  105SOL     OW  449   2.424   1.820   0.443
  105SOL    HW2  450   2.516   1.798   0.428
  105SOL    HW3  451   2.421   1.915   0.435
  105SOL    MW4  452   2.436   1.829   0.440
  106SOL     OW  453   1.559   1.335   0.312
  106SOL    HW2  454   1.469   1.363   0.296
  106SOL    HW3  455   1.605   1.415   0.340
  106SOL    MW4  456   1.553   1.350   0.314
  107SOL     OW  457   1.288   1.801   0.466
  107SOL    HW2  458   1.381   1.794   0.444
  107SOL    HW3  459   1.281   1.764   0.554
  107SOL    MW4  460   1.299   1.796   0.475
  108SOL     OW  461   2.229   2.300   0.454
  108SOL    HW2  462   2.214   2.373   0.394
  108SOL    HW3  463   2.242   2.340   0.539
  108SOL    MW4  464   2.229   2.315   0.457
  109SOL     OW  465   1.813   3.331   0.506
  109SOL    HW2  466   1.782   3.263   0.446
  109SOL    HW3  467   1.902   3.349   0.477
  109SOL    MW4  468   1.821   3.324   0.494
  110SOL     OW  469   0.956   2.731   0.562
  110SOL    HW2  470   0.921   2.808   0.519
  110SOL    HW3  471   0.889   2.707   0.627
  110SOL    MW4  472   0.943   2.738   0.565
  111SOL     OW  473   1.592   3.505   0.433
  111SOL    HW2  474   1.616   3.597   0.421
  111SOL    HW3  475   1.675   3.460   0.451
  111SOL    MW4  476   1.606   3.511   0.434
  112SOL     OW  477   1.114   2.023   0.437
  112SOL    HW2  478   1.096   2.040   0.529
  112SOL    HW3  479   1.171   1.946   0.438
  112SOL    MW4  480   1.119   2.015   0.449
  113SOL     OW  481   3.525   1.588   0.410
  113SOL    HW2  482   3.439   1.546   0.403
  113SOL    HW3  483   3.548   1.580   0.502
  113SOL    MW4  484   3.516   1.581   0.421
  114SOL     OW  485   1.764   2.402   0.453
  114SOL    HW2  486   1.841   2.345   0.453
  114SOL    HW3  487   1.795   2.485   0.417
  114SOL    MW4  488   1.778   2.406   0.448
  115SOL     OW  489   1.302   2.200   0.319
  115SOL    HW2  490   1.383   2.153   0.333
  115SOL    HW3  491   1.235   2.145   0.359
  115SOL    MW4  492   1.304   2.187   0.326
  116SOL     OW  493   1.350   3.383   0.432
  116SOL    HW2  494   1.437   3.424   0.433
  116SOL    HW3  495   1.351   3.329   0.353
  116SOL    MW4  496   1.362   3.382   0.422
  117SOL     OW  497   2.483   3.520   0.496
  117SOL    HW2  498   2.390   3.524   0.475
  117SOL    HW3  499   2.490   3.569   0.578
  117SOL    MW4  500   2.472   3.527   0.504
  118SOL     OW  501   1.680   4.536   0.381
  118SOL    HW2  502   1.664   4.595   0.454
  118SOL    HW3  503   1.689   4.449   0.421
  118SOL    MW4  504   1.679   4.532   0.396
  119SOL     OW  505   1.583   3.813   0.510
  119SOL    HW2  506   1.508   3.848   0.462
  119SOL    HW3  507   1.645   3.885   0.514
  119SOL    MW4  508   1.581   3.827   0.504
  120SOL     OW  509   1.419   4.498   0.289
  120SOL    HW2  510   1.417   4.543   0.205
  120SOL    HW3  511   1.507   4.512   0.322
  120SOL    MW4  512   1.430   4.506   0.282
  121SOL     OW  513   1.389   0.038   0.468
  121SOL    HW2  514   1.390   0.110   0.405
  121SOL    HW3  515   1.384  -0.041   0.414
  121SOL    MW4  516   1.389   0.037   0.453
  122SOL     OW  517   2.411   4.354   0.566
  122SOL    HW2  518   2.358   4.308   0.632
  122SOL    HW3  519   2.446   4.430   0.613
  122SOL    MW4  520   2.409   4.358   0.581
  123SOL     OW  521   2.369   0.207   0.453
  123SOL    HW2  522   2.352   0.180   0.543
  123SOL    HW3  523   2.314   0.150   0.400
  123SOL    MW4  524   2.360   0.196   0.458
  124SOL     OW  525   2.692   1.446   0.307
  124SOL    HW2  526   2.764   1.445   0.245
  124SOL    HW3  527   2.719   1.386   0.377
  124SOL    MW4  528   2.705   1.438   0.308
  125SOL     OW  529   2.976   0.454   0.479
  125SOL    HW2  530   2.893   0.431   0.437
  125SOL    HW3  531   2.992   0.544   0.452
  125SOL    MW4  532   2.967   0.463   0.470
  126SOL     OW  533   2.106   0.942   0.518
  126SOL    HW2  534   2.040   1.011   0.524
  126SOL    HW3  535   2.061   0.869   0.476
  126SOL    MW4  536   2.092   0.941   0.513
  127SOL     OW  537   2.787   1.263   0.496
  127SOL    HW2  538   2.813   1.176   0.465
  127SOL    HW3  539   2.827   1.271   0.582
  127SOL    MW4  540   2.796   1.252   0.503
  128SOL     OW  541   2.700   1.710   0.427
  128SOL    HW2  542   2.692   1.632   0.372
  128SOL    HW3  543   2.686   1.677   0.516
  128SOL    MW4  544   2.697   1.695   0.432
  129SOL     OW  545   3.148   1.875   0.401
  129SOL    HW2  546   3.139   1.939   0.472
  129SOL    HW3  547   3.243   1.869   0.387
  129SOL    MW4  548   3.160   1.882   0.409
  130SOL     OW  549   2.992   4.664   0.318
  130SOL    HW2  550   3.041   4.735   0.360
  130SOL    HW3  551   3.037   4.584   0.347
  130SOL    MW4  552   3.005   4.663   0.327
  131SOL     OW  553   1.950   1.487   0.540
  131SOL    HW2  554   1.950   1.507   0.633
  131SOL    HW3  555   2.033   1.521   0.507
  131SOL    MW4  556   1.961   1.494   0.548
  132SOL     OW  557   1.575   1.488   0.665
  132SOL    HW2  558   1.624   1.517   0.742
  132SOL    HW3  559   1.490   1.532   0.673
  132SOL    MW4  560   1.571   1.497   0.676
  133SOL     OW  561   2.442   2.109   0.459
  133SOL    HW2  562   2.380   2.180   0.444
  133SOL    HW3  563   2.519   2.132   0.408
  133SOL    MW4  564   2.444   2.121   0.451
  134SOL     OW  565   2.700   2.179   0.397
  134SOL    HW2  566   2.755   2.142   0.328
  134SOL    HW3  567   2.729   2.135   0.477
  134SOL    MW4  568   2.711   2.168   0.398
  135SOL     OW  569   2.540   2.616   0.331
  135SOL    HW2  570   2.597   2.555   0.377
  135SOL    HW3  571   2.456   2.569   0.324
  135SOL    MW4  572   2.536   2.602   0.336
  136SOL     OW  573   1.854   2.617   0.339
  136SOL    HW2  574   1.813   2.703   0.353
  136SOL    HW3  575   1.946   2.631   0.362
  136SOL    MW4  576   1.860   2.630   0.344
  137SOL     OW  577   1.648   2.802   0.426
  137SOL    HW2  578   1.643   2.813   0.521
  137SOL    HW3  579   1.580   2.738   0.406
  137SOL    MW4  580   1.639   2.795   0.436
  138SOL     OW  581   2.035   4.038   0.319
  138SOL    HW2  582   2.065   4.067   0.233
  138SOL    HW3  583   2.100   3.974   0.347
  138SOL    MW4  584   2.047   4.034   0.312
  139SOL     OW  585   2.492   3.909   0.344
  139SOL    HW2  586   2.544   3.832   0.322
  139SOL    HW3  587   2.529   3.979   0.290
  139SOL    MW4  588   2.504   3.908   0.334
  140SOL     OW  589   1.797   4.021   0.478
  140SOL    HW2  590   1.766   4.111   0.466
  140SOL    HW3  591   1.876   4.015   0.425
  140SOL    MW4  592   1.803   4.032   0.469
  141SOL     OW  593   2.046   3.379   0.344
  141SOL    HW2  594   2.099   3.301   0.356
  141SOL    HW3  595   2.064   3.407   0.254
  141SOL    MW4  596   2.055   3.372   0.334
  142SOL     OW  597   2.279   4.403   0.308
  142SOL    HW2  598   2.352   4.418   0.249
  142SOL    HW3  599   2.320   4.387   0.393
  142SOL    MW4  600   2.294   4.403   0.312
  143SOL     OW  601   2.070   4.268   0.450
  143SOL    HW2  602   2.054   4.185   0.407
  143SOL    HW3  603   2.121   4.319   0.387
  143SOL    MW4  604   2.074   4.264   0.436
  144SOL     OW  605   3.134   0.188   0.470
  144SOL    HW2  606   3.075   0.263   0.476
  144SOL    HW3  607   3.145   0.159   0.561
  144SOL    MW4  608   3.127   0.194   0.483
  145SOL     OW  609   2.670   3.697   0.381
  145SOL    HW2  610   2.604   3.638   0.418
  145SOL    HW3  611   2.741   3.639   0.352
  145SOL    MW4  612   2.671   3.682   0.382
  146SOL     OW  613   2.605   4.130   0.538
  146SOL    HW2  614   2.527   4.181   0.562
  146SOL    HW3  615   2.571   4.044   0.513
  146SOL    MW4  616   2.590   4.126   0.538
  147SOL     OW  617   2.634   0.124   0.455
  147SOL    HW2  618   2.683   0.198   0.421
  147SOL    HW3  619   2.542   0.152   0.453
  147SOL    MW4  620   2.628   0.137   0.451
  148SOL     OW  621   1.772   0.261   0.393
  148SOL    HW2  622   1.723   0.211   0.458
  148SOL    HW3  623   1.711   0.326   0.360
  148SOL    MW4  624   1.758   0.263   0.397
  149SOL     OW  625   3.067   0.693   0.376
  149SOL    HW2  626   3.079   0.783   0.406
  149SOL    HW3  627   3.156   0.657   0.375
  149SOL    MW4  628   3.081   0.700   0.380
  150SOL     OW  629   2.421   1.407   0.401
  150SOL    HW2  630   2.441   1.331   0.457
  150SOL    HW3  631   2.501   1.421   0.350
  150SOL    MW4  632   2.434   1.399   0.402
  151SOL     OW  633   2.530   0.845   0.275
  151SOL    HW2  634   2.625   0.833   0.275
  151SOL    HW3  635   2.510   0.875   0.187
  151SOL    MW4  636   2.540   0.847   0.264
  152SOL     OW  637   3.053   1.614   0.489
  152SOL    HW2  638   2.961   1.635   0.471
  152SOL    HW3  639   3.102   1.684   0.446
  152SOL    MW4  640   3.047   1.626   0.481
  153SOL     OW  641   3.527   1.098   0.282
  153SOL    HW2  642   3.555   1.042   0.354
  153SOL    HW3  643   3.520   1.038   0.207
  153SOL    MW4  644   3.530   1.083   0.281
  154SOL     OW  645   3.732   2.002   0.384
  154SOL    HW2  646   3.788   2.073   0.352
  154SOL    HW3  647   3.744   2.003   0.479
  154SOL    MW4  648   3.741   2.012   0.393
  155SOL     OW  649   2.690   0.081   0.722
  155SOL    HW2  650   2.695   0.169   0.761
  155SOL    HW3  651   2.674   0.097   0.629
  155SOL    MW4  652   2.688   0.095   0.715
  156SOL     OW  653   3.124   2.061   0.598
  156SOL    HW2  654   3.034   2.090   0.584
  156SOL    HW3  655   3.120   2.010   0.679
  156SOL    MW4  656   3.111   2.058   0.607
  157SOL     OW  657   2.724   2.454   0.470
  157SOL    HW2  658   2.811   2.494   0.465
  157SOL    HW3  659   2.738   2.364   0.441
  157SOL    MW4  660   2.737   2.448   0.465
  158SOL     OW  661   2.841   1.940   0.291
  158SOL    HW2  662   2.781   1.878   0.333
  158SOL    HW3  663   2.922   1.890   0.279
  158SOL    MW4  664   2.844   1.925   0.295
  159SOL     OW  665   2.273   2.507   0.266
  159SOL    HW2  666   2.227   2.589   0.286
  159SOL    HW3  667   2.265   2.499   0.171
  159SOL    MW4  668   2.266   2.517   0.256
  160SOL     OW  669   2.609   2.845   0.464
  160SOL    HW2  670   2.589   2.768   0.411
  160SOL    HW3  671   2.544   2.844   0.534
  160SOL    MW4  672   2.598   2.835   0.466
  161SOL     OW  673   3.151   3.189   0.474
  161SOL    HW2  674   3.135   3.097   0.453
  161SOL    HW3  675   3.119   3.199   0.564
  161SOL    MW4  676   3.144   3.178   0.483
  162SOL     OW  677   3.422   3.199   0.570
  162SOL    HW2  678   3.406   3.156   0.654
  162SOL    HW3  679   3.339   3.190   0.523
  162SOL    MW4  680   3.409   3.192   0.575
  163SOL     OW  681   2.212   3.141   0.396
  163SOL    HW2  682   2.223   3.199   0.471
  163SOL    HW3  683   2.301   3.115   0.373
  163SOL    MW4  684   2.225   3.145   0.403
  164SOL     OW  685   1.644   4.278   0.498
  164SOL    HW2  686   1.611   4.309   0.582
  164SOL    HW3  687   1.567   4.241   0.454
  164SOL    MW4  688   1.630   4.277   0.503
  165SOL     OW  689   3.428   4.111   0.390
  165SOL    HW2  690   3.357   4.124   0.328
  165SOL    HW3  691   3.393   4.050   0.455
  165SOL    MW4  692   3.414   4.105   0.391
  166SOL     OW  693   2.943   3.426   0.385
  166SOL    HW2  694   2.863   3.381   0.412
  166SOL    HW3  695   3.000   3.355   0.354
  166SOL    MW4  696   2.940   3.410   0.385
  167SOL     OW  697   2.681   3.333   0.501
  167SOL    HW2  698   2.696   3.295   0.588
  167SOL    HW3  699   2.606   3.391   0.512
  167SOL    MW4  700   2.673   3.335   0.514
  168SOL     OW  701   3.761   4.163   0.715
  168SOL    HW2  702   3.804   4.079   0.699
  168SOL    HW3  703   3.727   4.189   0.629
  168SOL    MW4  704   3.762   4.155   0.702
  169SOL     OW  705   3.184   4.075   0.240
  169SOL    HW2  706   3.173   4.123   0.158
  169SOL    HW3  707   3.096   4.044   0.262
  169SOL    MW4  708   3.171   4.077   0.232
  170SOL     OW  709   3.368   0.258   0.355
  170SOL    HW2  710   3.287   0.220   0.390
  170SOL    HW3  711   3.433   0.188   0.365
  170SOL    MW4  712   3.366   0.244   0.361
  171SOL     OW  713   2.719   4.564   0.324
  171SOL    HW2  714   2.678   4.640   0.364
  171SOL    HW3  715   2.810   4.591   0.309
  171SOL    MW4  716   2.726   4.577   0.327
  172SOL     OW  717   2.906   4.045   0.321
  172SOL    HW2  718   2.868   3.998   0.395
  172SOL    HW3  719   2.831   4.077   0.271
  172SOL    MW4  720   2.891   4.043   0.324
  173SOL     OW  721   2.727   0.389   0.344
  173SOL    HW2  722   2.673   0.466   0.361
  173SOL    HW3  723   2.751   0.396   0.251
  173SOL    MW4  724   2.723   0.400   0.334
  174SOL     OW  725   3.118   0.966   0.461
  174SOL    HW2  726   3.156   0.931   0.541
  174SOL    HW3  727   3.171   1.043   0.440
  174SOL    MW4  728   3.130   0.972   0.469
  175SOL     OW  729   3.325   0.542   0.443
  175SOL    HW2  730   3.333   0.460   0.393
  175SOL    HW3  731   3.410   0.584   0.432
  175SOL    MW4  732   3.337   0.537   0.435
  176SOL     OW  733   3.614   0.894   0.466
  176SOL    HW2  734   3.640   0.814   0.419
  176SOL    HW3  735   3.601   0.865   0.556
  176SOL    MW4  736   3.616   0.879   0.471
  177SOL     OW  737   3.619   0.406   0.212
  177SOL    HW2  738   3.535   0.361   0.222
  177SOL    HW3  739   3.683   0.335   0.206
  177SOL    MW4  740   3.616   0.390   0.212
  178SOL     OW  741   3.411   1.801   0.681
  178SOL    HW2  742   3.390   1.820   0.589
  178SOL    HW3  743   3.335   1.834   0.729
  178SOL    MW4  744   3.398   1.808   0.675
  179SOL     OW  745   3.411   1.846   0.409
  179SOL    HW2  746   3.457   1.762   0.405
  179SOL    HW3  747   3.479   1.911   0.393
  179SOL    MW4  748   3.426   1.843   0.406
  180SOL     OW  749   3.291   1.201   0.447
  180SOL    HW2  750   3.375   1.187   0.402
  180SOL    HW3  751   3.315   1.215   0.539
  180SOL    MW4  752   3.305   1.201   0.453
  181SOL     OW  753   3.803   1.749   0.343
  181SOL    HW2  754   3.762   1.835   0.348
  181SOL    HW3  755   3.729   1.688   0.335
  181SOL    MW4  756   3.788   1.752   0.342
  182SOL     OW  757   3.294   2.268   0.612
  182SOL    HW2  758   3.244   2.188   0.594
  182SOL    HW3  759   3.346   2.246   0.690
  182SOL    MW4  760   3.294   2.255   0.620
  183SOL     OW  761   3.487   2.721   0.597
  183SOL    HW2  762   3.541   2.703   0.674
  183SOL    HW3  763   3.477   2.636   0.554
  183SOL    MW4  764   3.493   2.707   0.602
  184SOL     OW  765   2.015   2.934   0.436
  184SOL    HW2  766   1.994   2.912   0.527
  184SOL    HW3  767   2.077   3.007   0.443
  184SOL    MW4  768   2.021   2.941   0.449
  185SOL     OW  769   3.218   2.642   0.356
  185SOL    HW2  770   3.229   2.625   0.263
  185SOL    HW3  771   3.287   2.591   0.398
  185SOL    MW4  772   3.229   2.633   0.349
  186SOL     OW  773   2.896   2.834   0.772
  186SOL    HW2  774   2.893   2.847   0.678
  186SOL    HW3  775   2.967   2.771   0.785
  186SOL    MW4  776   2.905   2.827   0.762
  187SOL     OW  777   2.788   0.761   0.284
  187SOL    HW2  778   2.865   0.707   0.298
  187SOL    HW3  779   2.799   0.835   0.343
  187SOL    MW4  780   2.799   0.763   0.293
  188SOL     OW  781   2.933   4.185   0.556
  188SOL    HW2  782   2.941   4.151   0.466
  188SOL    HW3  783   2.992   4.130   0.608
  188SOL    MW4  784   2.942   4.173   0.551
  189SOL     OW  785   3.313   3.648   0.485
  189SOL    HW2  786   3.388   3.635   0.427
  189SOL    HW3  787   3.331   3.590   0.559
  189SOL    MW4  788   3.325   3.639   0.487
  190SOL     OW  789   3.844   3.455   0.409
  190SOL    HW2  790   3.935   3.430   0.426
  190SOL    HW3  791   3.822   3.516   0.480
  190SOL    MW4  792   3.853   3.460   0.421
  191SOL     OW  793   3.745   3.290   0.762
  191SOL    HW2  794   3.840   3.298   0.772
  191SOL    HW3  795   3.732   3.260   0.672
  191SOL    MW4  796   3.756   3.287   0.752
  192SOL     OW  797   2.832   3.867   0.505
  192SOL    HW2  798   2.906   3.807   0.509
  192SOL    HW3  799   2.765   3.819   0.457
  192SOL    MW4  800   2.833   3.853   0.499
  193SOL     OW  801   2.496   3.103   0.423
  193SOL    HW2  802   2.548   3.023   0.411
  193SOL    HW3  803   2.554   3.162   0.470
  193SOL    MW4  804   2.511   3.100   0.427
  194SOL     OW  805   0.089   0.039   0.339
  194SOL    HW2  806   0.106   0.022   0.247
  194SOL    HW3  807   0.063  -0.046   0.375
  194SOL    MW4  808   0.088   0.026   0.332
  195SOL     OW  809   3.814   0.226   0.338
  195SOL    HW2  810   3.811   0.314   0.374
  195SOL    HW3  811   3.906   0.200   0.344
  195SOL    MW4  812   3.825   0.234   0.344
  196SOL     OW  813   3.695   0.656   0.320
  196SOL    HW2  814   3.663   0.575   0.280
  196SOL    HW3  815   3.764   0.687   0.260
  196SOL    MW4  816   3.700   0.650   0.307
  197SOL     OW  817   3.921   0.736   0.181
  197SOL    HW2  818   3.926   0.820   0.227
  197SOL    HW3  819   3.973   0.676   0.234
  197SOL    MW4  820   3.928   0.739   0.194
  198SOL     OW  821   4.078   0.611   0.385
  198SOL    HW2  822   4.156   0.556   0.396
  198SOL    HW3  823   4.011   0.568   0.439
  198SOL    MW4  824   4.079   0.598   0.394
  199SOL     OW  825   4.393   0.926   0.455
  199SOL    HW2  826   4.299   0.917   0.474
  199SOL    HW3  827   4.416   0.844   0.411
  199SOL    MW4  828   4.383   0.914   0.452
  200SOL     OW  829   3.895   0.960   0.428
  200SOL    HW2  830   3.893   1.055   0.422
  200SOL    HW3  831   3.804   0.935   0.445
  200SOL    MW4  832   3.883   0.969   0.430
  201SOL     OW  833   4.104   1.428   0.469
  201SOL    HW2  834   4.105   1.519   0.439
  201SOL    HW3  835   4.196   1.405   0.482
  201SOL    MW4  836   4.116   1.437   0.467
  202SOL     OW  837   3.668   1.333   0.362
  202SOL    HW2  838   3.627   1.419   0.351
  202SOL    HW3  839   3.609   1.273   0.316
  202SOL    MW4  840   3.654   1.337   0.355
  203SOL     OW  841   3.277   1.475   0.376
  203SOL    HW2  842   3.189   1.508   0.394
  203SOL    HW3  843   3.272   1.381   0.397
  203SOL    MW4  844   3.264   1.467   0.381
  204SOL     OW  845   2.833   0.988   0.453
  204SOL    HW2  846   2.811   0.956   0.540
  204SOL    HW3  847   2.929   0.991   0.452
  204SOL    MW4  848   2.843   0.984   0.464
  205SOL     OW  849   3.717   2.418   0.389
  205SOL    HW2  850   3.727   2.352   0.320
  205SOL    HW3  851   3.766   2.383   0.463
  205SOL    MW4  852   3.725   2.405   0.389
  206SOL     OW  853   4.156   2.914   0.438
  206SOL    HW2  854   4.143   2.830   0.393
  206SOL    HW3  855   4.068   2.942   0.462
  206SOL    MW4  856   4.143   2.906   0.436
  207SOL     OW  857   2.996   2.560   0.502
  207SOL    HW2  858   3.034   2.519   0.580
  207SOL    HW3  859   3.068   2.563   0.440
  207SOL    MW4  860   3.011   2.555   0.504
  208SOL     OW  861   3.029   3.656   0.508
  208SOL    HW2  862   3.121   3.669   0.485
  208SOL    HW3  863   3.003   3.578   0.458
  208SOL    MW4  864   3.038   3.648   0.498
  209SOL     OW  865   3.134   2.890   0.426
  209SOL    HW2  866   3.174   2.808   0.397
  209SOL    HW3  867   3.041   2.870   0.436
  209SOL    MW4  868   3.127   2.877   0.424
  210SOL     OW  869   3.894   2.974   0.497
  210SOL    HW2  870   3.853   2.899   0.453
  210SOL    HW3  871   3.825   3.041   0.498
  210SOL    MW4  872   3.879   2.973   0.491
  211SOL     OW  873   3.749   2.684   0.473
  211SOL    HW2  874   3.749   2.602   0.424
  211SOL    HW3  875   3.657   2.700   0.494
  211SOL    MW4  876   3.737   2.675   0.470
  212SOL     OW  877   3.869   4.015   0.259
  212SOL    HW2  878   3.891   3.951   0.326
  212SOL    HW3  879   3.884   3.970   0.176
  212SOL    MW4  880   3.874   4.001   0.257
  213SOL     OW  881   3.452   2.482   0.485
  213SOL    HW2  882   3.404   2.417   0.537
  213SOL    HW3  883   3.536   2.440   0.466
  213SOL    MW4  884   3.457   2.468   0.489
  214SOL     OW  885   3.339   3.935   0.601
  214SOL    HW2  886   3.401   3.923   0.673
  214SOL    HW3  887   3.328   3.848   0.563
  214SOL    MW4  888   3.346   3.922   0.605
  215SOL     OW  889   4.370   3.944   0.670
  215SOL    HW2  890   4.319   3.908   0.742
  215SOL    HW3  891   4.325   4.026   0.648
  215SOL    MW4  892   4.357   3.950   0.676
  216SOL     OW  893   3.701   4.175   0.439
  216SOL    HW2  894   3.759   4.134   0.375
  216SOL    HW3  895   3.616   4.133   0.425
  216SOL    MW4  896   3.698   4.164   0.428
  217SOL     OW  897   3.659   4.479   0.501
  217SOL    HW2  898   3.671   4.409   0.436
  217SOL    HW3  899   3.739   4.477   0.553
  217SOL    MW4  900   3.671   4.469   0.500
  218SOL     OW  901   4.359   0.199   0.441
  218SOL    HW2  902   4.432   0.156   0.396
  218SOL    HW3  903   4.390   0.212   0.531
  218SOL    MW4  904   4.373   0.195   0.447
  219SOL     OW  905   4.129   0.856   0.519
  219SOL    HW2  906   4.048   0.899   0.490
  219SOL    HW3  907   4.122   0.766   0.487
  219SOL    MW4  908   4.117   0.850   0.511
  220SOL     OW  909   0.134   1.635   0.068
  220SOL    HW2  910   0.117   1.567   0.134
  220SOL    HW3  911   0.227   1.625   0.047
  220SOL    MW4  912   0.144   1.625   0.074
  221SOL     OW  913   4.324   0.483   0.437
  221SOL    HW2  914   4.348   0.393   0.412
  221SOL    HW3  915   4.392   0.537   0.396
  221SOL    MW4  916   4.336   0.478   0.428
  222SOL     OW  917   4.382   1.390   0.537
  222SOL    HW2  918   4.431   1.472   0.526
  222SOL    HW3  919   4.349   1.394   0.626
  222SOL    MW4  920   4.384   1.402   0.547
  223SOL     OW  921   3.575   0.068   0.405
  223SOL    HW2  922   3.595  -0.023   0.423
  223SOL    HW3  923   3.655   0.104   0.367
  223SOL    MW4  924   3.588   0.061   0.403
  224SOL     OW  925   3.898   1.231   0.484
  224SOL    HW2  926   3.980   1.281   0.479
  224SOL    HW3  927   3.835   1.282   0.434
  224SOL    MW4  928   3.901   1.244   0.477
  225SOL     OW  929   0.008   1.174   0.399
  225SOL    HW2  930  -0.047   1.233   0.451
  225SOL    HW3  931  -0.032   1.088   0.410
  225SOL    MW4  932  -0.005   1.170   0.407
  226SOL     OW  933   4.131   2.327   0.303
  226SOL    HW2  934   4.121   2.323   0.398
  226SOL    HW3  935   4.141   2.421   0.285
  226SOL    MW4  936   4.131   2.339   0.313
  227SOL     OW  937   0.015   1.423   0.240
  227SOL    HW2  938   0.014   1.331   0.268
  227SOL    HW3  939  -0.066   1.459   0.277
  227SOL    MW4  940   0.004   1.416   0.249
  228SOL     OW  941   0.302   2.340   0.172
  228SOL    HW2  942   0.238   2.318   0.104
  228SOL    HW3  943   0.286   2.432   0.191
  228SOL    MW4  944   0.292   2.349   0.165
  229SOL     OW  945   4.415   2.054   0.515
  229SOL    HW2  946   4.389   1.984   0.456
  229SOL    HW3  947   4.389   2.135   0.471
  229SOL    MW4  948   4.408   2.056   0.502
  230SOL     OW  949   4.439   2.562   0.441
  230SOL    HW2  950   4.527   2.596   0.425
  230SOL    HW3  951   4.442   2.527   0.530
  230SOL    MW4  952   4.451   2.562   0.450
  231SOL     OW  953   4.308   3.608   0.511
  231SOL    HW2  954   4.398   3.577   0.498
  231SOL    HW3  955   4.255   3.529   0.503
  231SOL    MW4  956   4.313   3.594   0.508
  232SOL     OW  957   4.177   2.627   0.362
  232SOL    HW2  958   4.127   2.620   0.443
  232SOL    HW3  959   4.269   2.627   0.391
  232SOL    MW4  960   4.183   2.626   0.377
  233SOL     OW  961   0.352   3.840   0.355
  233SOL    HW2  962   0.310   3.917   0.392
  233SOL    HW3  963   0.445   3.862   0.352
  233SOL    MW4  964   0.359   3.853   0.359
  234SOL     OW  965   0.063   3.524   0.374
  234SOL    HW2  966   0.070   3.587   0.302
  234SOL    HW3  967   0.137   3.546   0.431
  234SOL    MW4  968   0.074   3.535   0.372
  235SOL     OW  969   0.019   3.249   0.427
  235SOL    HW2  970   0.024   3.332   0.381
  235SOL    HW3  971  -0.058   3.205   0.389
  235SOL    MW4  972   0.009   3.254   0.416
  236SOL     OW  973   3.962   3.852   0.481
  236SOL    HW2  974   3.933   3.765   0.508
  236SOL    HW3  975   4.057   3.844   0.473
  236SOL    MW4  976   3.970   3.839   0.483
  237SOL     OW  977   3.699   3.183   0.495
  237SOL    HW2  978   3.722   3.266   0.453
  237SOL    HW3  979   3.603   3.182   0.495
  237SOL    MW4  980   3.689   3.194   0.489
  238SOL     OW  981   0.211   4.066   0.460
  238SOL    HW2  982   0.173   4.066   0.548
  238SOL    HW3  983   0.140   4.038   0.403
  238SOL    MW4  984   0.197   4.062   0.464
  239SOL     OW  985   4.089   4.236   0.383
  239SOL    HW2  986   4.032   4.206   0.312
  239SOL    HW3  987   4.077   4.331   0.384
  239SOL    MW4  988   4.080   4.244   0.374
  240SOL     OW  989   4.203   4.156   0.623
  240SOL    HW2  990   4.239   4.239   0.653
  240SOL    HW3  991   4.165   4.175   0.537
  240SOL    MW4  992   4.203   4.169   0.616
  241SOL     OW  993   4.119   4.504   0.480
  241SOL    HW2  994   4.192   4.471   0.533
  241SOL    HW3  995   4.046   4.512   0.542
  241SOL    MW4  996   4.119   4.500   0.495
  242SOL     OW  997   0.219   0.053   0.819
  242SOL    HW2  998   0.233  -0.027   0.768
  242SOL    HW3  999   0.151   0.100   0.771
  242SOL    MW4 1000   0.212   0.049   0.806
  243SOL     OW 1001   4.449   0.182   0.719
  243SOL    HW2 1002   4.396   0.117   0.765
  243SOL    HW3 1003   4.433   0.264   0.766
  243SOL    MW4 1004   4.440   0.184   0.731
  244SOL     OW 1005   4.465   0.425   0.856
  244SOL    HW2 1006   4.476   0.423   0.951
  244SOL    HW3 1007   4.551   0.453   0.823
  244SOL    MW4 1008   4.478   0.429   0.864
  245SOL     OW 1009   0.213   0.469   0.750
  245SOL    HW2 1010   0.291   0.436   0.794
  245SOL    HW3 1011   0.210   0.562   0.772
  245SOL    MW4 1012   0.223   0.477   0.759
  246SOL     OW 1013   0.188   0.744   0.825
  246SOL    HW2 1014   0.196   0.763   0.918
  246SOL    HW3 1015   0.113   0.796   0.796
  246SOL    MW4 1016   0.179   0.753   0.833
  247SOL     OW 1017   4.470   0.892   0.735
  247SOL    HW2 1018   4.394   0.849   0.775
  247SOL    HW3 1019   4.442   0.912   0.646
  247SOL    MW4 1020   4.456   0.889   0.729
  248SOL     OW 1021   0.004   1.145   0.852
  248SOL    HW2 1022  -0.013   1.160   0.945
  248SOL    HW3 1023  -0.008   1.051   0.840
  248SOL    MW4 1024   0.000   1.135   0.863
  249SOL     OW 1025   0.237   1.279   0.735
  249SOL    HW2 1026   0.151   1.239   0.748
  249SOL    HW3 1027   0.261   1.255   0.646
  249SOL    MW4 1028   0.229   1.271   0.725
  250SOL     OW 1029   0.225   1.528   0.855
  250SOL    HW2 1030   0.286   1.571   0.797
  250SOL    HW3 1031   0.233   1.435   0.833
  250SOL    MW4 1032   0.234   1.521   0.845
  251SOL     OW 1033   0.004   1.649   0.750
  251SOL    HW2 1034  -0.080   1.636   0.794
  251SOL    HW3 1035   0.066   1.595   0.799
  251SOL    MW4 1036   0.001   1.640   0.762
  252SOL     OW 1037   0.023   1.896   0.852
  252SOL    HW2 1038   0.062   1.956   0.789
  252SOL    HW3 1039   0.035   1.809   0.813
  252SOL    MW4 1040   0.030   1.892   0.839
  253SOL     OW 1041   0.175   2.071   0.690
  253SOL    HW2 1042   0.171   2.151   0.742
  253SOL    HW3 1043   0.127   2.092   0.609
  253SOL    MW4 1044   0.168   2.084   0.686
  254SOL     OW 1045   0.180   2.325   0.831
  254SOL    HW2 1046   0.179   2.320   0.927
  254SOL    HW3 1047   0.261   2.371   0.811
  254SOL    MW4 1048   0.190   2.330   0.841
  255SOL     OW 1049   4.431   2.461   0.709
  255SOL    HW2 1050   4.356   2.407   0.736
  255SOL    HW3 1051   4.505   2.427   0.760
  255SOL    MW4 1052   4.431   2.449   0.719
  256SOL     OW 1053   4.465   2.716   0.799
  256SOL    HW2 1054   4.478   2.707   0.893
  256SOL    HW3 1055   4.446   2.627   0.769
  256SOL    MW4 1056   4.464   2.703   0.807
  257SOL     OW 1057   0.231   2.846   0.695
  257SOL    HW2 1058   0.151   2.794   0.699
  257SOL    HW3 1059   0.235   2.877   0.605
  257SOL    MW4 1060   0.221   2.844   0.684
  258SOL     OW 1061   0.187   3.090   0.831
  258SOL    HW2 1062   0.218   3.087   0.922
  258SOL    HW3 1063   0.203   3.002   0.798
  258SOL    MW4 1064   0.193   3.078   0.839
  259SOL     OW 1065   4.482   3.235   0.698
  259SOL    HW2 1066   4.550   3.180   0.738
  259SOL    HW3 1067   4.504   3.237   0.605
  259SOL    MW4 1068   4.494   3.228   0.691
  260SOL     OW 1069   0.036   3.470   0.861
  260SOL    HW2 1070  -0.042   3.526   0.853
  260SOL    HW3 1071   0.018   3.397   0.802
  260SOL    MW4 1072   0.023   3.468   0.852
  261SOL     OW 1073   0.251   3.625   0.749
  261SOL    HW2 1074   0.172   3.572   0.763
  261SOL    HW3 1075   0.278   3.604   0.660
  261SOL    MW4 1076   0.244   3.616   0.739
  262SOL     OW 1077   0.316   3.895   0.837
  262SOL    HW2 1078   0.276   3.895   0.924
  262SOL    HW3 1079   0.281   3.815   0.795
  262SOL    MW4 1080   0.306   3.884   0.843
  263SOL     OW 1081   0.125   4.081   0.722
  263SOL    HW2 1082   0.050   4.023   0.737
  263SOL    HW3 1083   0.199   4.035   0.763
  263SOL    MW4 1084   0.125   4.067   0.729
  264SOL     OW 1085   0.064   4.325   0.821
  264SOL    HW2 1086   0.059   4.322   0.916
  264SOL    HW3 1087   0.088   4.236   0.795
  264SOL    MW4 1088   0.067   4.313   0.830
  265SOL     OW 1089   0.283   4.473   0.724
  265SOL    HW2 1090   0.209   4.428   0.764
  265SOL    HW3 1091   0.292   4.432   0.638
  265SOL    MW4 1092   0.275   4.462   0.718
  266SOL     OW 1093   0.656   4.650   0.785
  266SOL    HW2 1094   0.646   4.675   0.877
  266SOL    HW3 1095   0.589   4.700   0.739
  266SOL    MW4 1096   0.646   4.660   0.791
  267SOL     OW 1097   0.455   0.150   0.666
  267SOL    HW2 1098   0.365   0.143   0.696
  267SOL    HW3 1099   0.449   0.167   0.572
  267SOL    MW4 1100   0.443   0.151   0.658
  268SOL     OW 1101   0.457   0.387   0.845
  268SOL    HW2 1102   0.543   0.422   0.824
  268SOL    HW3 1103   0.455   0.301   0.802
  268SOL    MW4 1104   0.468   0.380   0.837
  269SOL     OW 1105   0.668   0.515   0.759
  269SOL    HW2 1106   0.747   0.466   0.783
  269SOL    HW3 1107   0.652   0.490   0.668
  269SOL    MW4 1108   0.677   0.505   0.750
  270SOL     OW 1109   0.663   0.776   0.839
  270SOL    HW2 1110   0.581   0.803   0.797
  270SOL    HW3 1111   0.674   0.684   0.812
  270SOL    MW4 1112   0.653   0.767   0.830
  271SOL     OW 1113   0.439   0.874   0.731
  271SOL    HW2 1114   0.441   0.952   0.786
  271SOL    HW3 1115   0.358   0.828   0.757
  271SOL    MW4 1116   0.428   0.878   0.742
  272SOL     OW 1117   0.468   1.139   0.825
  272SOL    HW2 1118   0.541   1.195   0.800
  272SOL    HW3 1119   0.390   1.184   0.790
  272SOL    MW4 1120   0.467   1.152   0.817
  273SOL     OW 1121   0.671   1.312   0.749
  273SOL    HW2 1122   0.659   1.401   0.780
  273SOL    HW3 1123   0.701   1.321   0.658
  273SOL    MW4 1124   0.673   1.325   0.741
  274SOL     OW 1125   0.658   1.572   0.804
  274SOL    HW2 1126   0.650   1.578   0.900
  274SOL    HW3 1127   0.575   1.607   0.771
  274SOL    MW4 1128   0.646   1.578   0.813
  275SOL     OW 1129   0.407   1.652   0.675
  275SOL    HW2 1130   0.424   1.740   0.641
  275SOL    HW3 1131   0.386   1.600   0.598
  275SOL    MW4 1132   0.406   1.657   0.660
  276SOL     OW 1133   0.449   1.937   0.626
  276SOL    HW2 1134   0.361   1.974   0.619
  276SOL    HW3 1135   0.499   1.985   0.560
  276SOL    MW4 1136   0.444   1.948   0.616
  277SOL     OW 1137   0.597   2.040   0.857
  277SOL    HW2 1138   0.560   2.017   0.942
  277SOL    HW3 1139   0.541   1.996   0.793
  277SOL    MW4 1140   0.585   2.031   0.860
  278SOL     OW 1141   0.662   2.316   0.869
  278SOL    HW2 1142   0.663   2.327   0.964
  278SOL    HW3 1143   0.641   2.223   0.856
  278SOL    MW4 1144   0.659   2.305   0.880
  279SOL     OW 1145   0.425   2.430   0.737
  279SOL    HW2 1146   0.493   2.383   0.786
  279SOL    HW3 1147   0.433   2.396   0.648
  279SOL    MW4 1148   0.435   2.420   0.732
  280SOL     OW 1149   0.440   2.698   0.827
  280SOL    HW2 1150   0.434   2.613   0.784
  280SOL    HW3 1151   0.376   2.752   0.781
  280SOL    MW4 1152   0.431   2.694   0.815
  281SOL     OW 1153   0.653   2.843   0.752
  281SOL    HW2 1154   0.735   2.814   0.794
  281SOL    HW3 1155   0.592   2.771   0.766
  281SOL    MW4 1156   0.656   2.830   0.759
  282SOL     OW 1157   0.685   3.096   0.856
  282SOL    HW2 1158   0.599   3.138   0.860
  282SOL    HW3 1159   0.667   3.009   0.822
  282SOL    MW4 1160   0.671   3.090   0.852
  283SOL     OW 1161   0.451   3.216   0.779
  283SOL    HW2 1162   0.455   3.309   0.801
  283SOL    HW3 1163   0.358   3.193   0.785
  283SOL    MW4 1164   0.439   3.225   0.782
  284SOL     OW 1165   0.462   3.488   0.860
  284SOL    HW2 1166   0.447   3.483   0.954
  284SOL    HW3 1167   0.390   3.541   0.827
  284SOL    MW4 1168   0.451   3.494   0.868
  285SOL     OW 1169   0.702   3.638   0.772
  285SOL    HW2 1170   0.630   3.591   0.813
  285SOL    HW3 1171   0.683   3.730   0.790
  285SOL    MW4 1172   0.690   3.644   0.780
  286SOL     OW 1173   0.666   3.897   0.854
  286SOL    HW2 1174   0.745   3.926   0.809
  286SOL    HW3 1175   0.595   3.943   0.810
  286SOL    MW4 1176   0.667   3.907   0.843
  287SOL     OW 1177   0.516   4.044   0.694
  287SOL    HW2 1178   0.507   4.131   0.731
  287SOL    HW3 1179   0.441   3.995   0.726
  287SOL    MW4 1180   0.505   4.049   0.703
  288SOL     OW 1181   0.481   4.286   0.824
  288SOL    HW2 1182   0.463   4.267   0.917
  288SOL    HW3 1183   0.425   4.361   0.804
  288SOL    MW4 1184   0.471   4.293   0.834
  289SOL     OW 1185   0.709   4.388   0.708
  289SOL    HW2 1186   0.642   4.345   0.761
  289SOL    HW3 1187   0.708   4.479   0.740
  289SOL    MW4 1188   0.700   4.394   0.719
  290SOL     OW 1189   1.094   4.633   0.851
  290SOL    HW2 1190   1.179   4.670   0.830
  290SOL    HW3 1191   1.032   4.684   0.798
  290SOL    MW4 1192   1.097   4.645   0.842
  291SOL     OW 1193   0.900   0.111   0.706
  291SOL    HW2 1194   0.896   0.194   0.753
  291SOL    HW3 1195   0.821   0.064   0.733
  291SOL    MW4 1196   0.889   0.116   0.716
  292SOL     OW 1197   0.890   0.371   0.840
  292SOL    HW2 1198   0.911   0.383   0.933
  292SOL    HW3 1199   0.961   0.416   0.794
  292SOL    MW4 1200   0.902   0.378   0.847
  293SOL     OW 1201   1.107   0.474   0.747
  293SOL    HW2 1202   1.189   0.430   0.768
  293SOL    HW3 1203   1.117   0.498   0.654
  293SOL    MW4 1204   1.119   0.472   0.737
  294SOL     OW 1205   1.109   0.747   0.827
  294SOL    HW2 1206   1.101   0.756   0.922
  294SOL    HW3 1207   1.118   0.653   0.813
  294SOL    MW4 1208   1.109   0.736   0.838
  295SOL     OW 1209   0.884   0.895   0.739
  295SOL    HW2 1210   0.959   0.841   0.765
  295SOL    HW3 1211   0.808   0.849   0.774
  295SOL    MW4 1212   0.884   0.882   0.747
  296SOL     OW 1213   0.883   1.157   0.869
  296SOL    HW2 1214   0.891   1.069   0.831
  296SOL    HW3 1215   0.811   1.197   0.821
  296SOL    MW4 1216   0.874   1.150   0.858
  297SOL     OW 1217   1.094   1.293   0.766
  297SOL    HW2 1218   1.025   1.243   0.810
  297SOL    HW3 1219   1.057   1.313   0.680
  297SOL    MW4 1220   1.080   1.289   0.761
  298SOL     OW 1221   1.091   1.555   0.860
  298SOL    HW2 1222   1.029   1.611   0.813
  298SOL    HW3 1223   1.072   1.467   0.829
  298SOL    MW4 1224   1.081   1.551   0.850
  299SOL     OW 1225   0.890   1.696   0.705
  299SOL    HW2 1226   0.867   1.775   0.755
  299SOL    HW3 1227   0.824   1.631   0.730
  299SOL    MW4 1228   0.878   1.698   0.715
  300SOL     OW 1229   0.855   1.949   0.842
  300SOL    HW2 1230   0.873   1.927   0.934
  300SOL    HW3 1231   0.767   1.986   0.843
  300SOL    MW4 1232   0.846   1.951   0.855
  301SOL     OW 1233   1.093   2.043   0.722
  301SOL    HW2 1234   1.113   2.119   0.777
  301SOL    HW3 1235   1.006   2.015   0.750
  301SOL    MW4 1236   1.084   2.049   0.733
  302SOL     OW 1237   1.105   2.325   0.819
  302SOL    HW2 1238   1.131   2.324   0.911
  302SOL    HW3 1239   1.180   2.362   0.773
  302SOL    MW4 1240   1.118   2.330   0.825
  303SOL     OW 1241   0.869   2.432   0.755
  303SOL    HW2 1242   0.951   2.382   0.758
  303SOL    HW3 1243   0.804   2.374   0.793
  303SOL    MW4 1244   0.872   2.418   0.760
  304SOL     OW 1245   0.885   2.693   0.867
  304SOL    HW2 1246   0.886   2.680   0.962
  304SOL    HW3 1247   0.867   2.607   0.831
  304SOL    MW4 1248   0.883   2.680   0.875
  305SOL     OW 1249   1.113   2.855   0.753
  305SOL    HW2 1250   1.061   2.820   0.826
  305SOL    HW3 1251   1.070   2.820   0.675
  305SOL    MW4 1252   1.100   2.845   0.753
  306SOL     OW 1253   1.123   3.146   0.797
  306SOL    HW2 1254   1.033   3.175   0.785
  306SOL    HW3 1255   1.123   3.056   0.763
  306SOL    MW4 1256   1.111   3.138   0.791
  307SOL     OW 1257   0.855   3.244   0.706
  307SOL    HW2 1258   0.858   3.327   0.754
  307SOL    HW3 1259   0.800   3.187   0.759
  307SOL    MW4 1260   0.848   3.248   0.719
  308SOL     OW 1261   0.911   3.465   0.882
  308SOL    HW2 1262   0.992   3.512   0.861
  308SOL    HW3 1263   0.841   3.524   0.853
  308SOL    MW4 1264   0.912   3.479   0.875
  309SOL     OW 1265   1.139   3.588   0.768
  309SOL    HW2 1266   1.218   3.536   0.783
  309SOL    HW3 1267   1.123   3.580   0.675
  309SOL    MW4 1268   1.148   3.580   0.758
  310SOL     OW 1269   1.170   3.871   0.875
  310SOL    HW2 1270   1.169   3.870   0.971
  310SOL    HW3 1271   1.174   3.779   0.850
  310SOL    MW4 1272   1.170   3.859   0.885
  311SOL     OW 1273   0.929   3.957   0.794
  311SOL    HW2 1274   0.922   4.049   0.820
  311SOL    HW3 1275   1.007   3.926   0.839
  311SOL    MW4 1276   0.939   3.965   0.803
  312SOL     OW 1277   0.899   4.215   0.873
  312SOL    HW2 1278   0.973   4.272   0.853
  312SOL    HW3 1279   0.825   4.254   0.827
  312SOL    MW4 1280   0.899   4.227   0.865
  313SOL     OW 1281   1.103   4.371   0.762
  313SOL    HW2 1282   1.196   4.351   0.778
  313SOL    HW3 1283   1.094   4.463   0.786
  313SOL    MW4 1284   1.114   4.381   0.767
  314SOL     OW 1285   1.601   4.661   0.825
  314SOL    HW2 1286   1.612   4.650   0.919
  314SOL    HW3 1287   1.511   4.691   0.814
  314SOL    MW4 1288   1.591   4.663   0.836
  315SOL     OW 1289   1.350   0.050   0.754
  315SOL    HW2 1290   1.340   0.143   0.773
  315SOL    HW3 1291   1.343   0.044   0.659
  315SOL    MW4 1292   1.348   0.061   0.744
  316SOL     OW 1293   1.326   0.324   0.798
  316SOL    HW2 1294   1.347   0.344   0.889
  316SOL    HW3 1295   1.401   0.358   0.748
  316SOL    MW4 1296   1.339   0.331   0.804
  317SOL     OW 1297   1.553   0.441   0.686
  317SOL    HW2 1298   1.547   0.535   0.703
  317SOL    HW3 1299   1.633   0.414   0.731
  317SOL    MW4 1300   1.562   0.450   0.695
  318SOL     OW 1301   1.555   0.698   0.812
  318SOL    HW2 1302   1.629   0.749   0.779
  318SOL    HW3 1303   1.477   0.748   0.784
  318SOL    MW4 1304   1.554   0.711   0.804
  319SOL     OW 1305   1.342   0.840   0.719
  319SOL    HW2 1306   1.337   0.935   0.722
  319SOL    HW3 1307   1.263   0.809   0.762
  319SOL    MW4 1308   1.331   0.848   0.725
  320SOL     OW 1309   1.318   1.116   0.793
  320SOL    HW2 1310   1.401   1.163   0.795
  320SOL    HW3 1311   1.254   1.180   0.763
  320SOL    MW4 1312   1.320   1.130   0.790
  321SOL     OW 1313   1.574   1.224   0.721
  321SOL    HW2 1314   1.571   1.318   0.700
  321SOL    HW3 1315   1.562   1.180   0.636
  321SOL    MW4 1316   1.572   1.231   0.707
  322SOL     OW 1317   1.733   1.603   0.858
  322SOL    HW2 1318   1.682   1.557   0.924
  322SOL    HW3 1319   1.821   1.567   0.866
  322SOL    MW4 1320   1.738   1.592   0.868
  323SOL     OW 1321   1.339   1.623   0.703
  323SOL    HW2 1322   1.363   1.713   0.726
  323SOL    HW3 1323   1.268   1.601   0.763
  323SOL    MW4 1324   1.333   1.632   0.714
  324SOL     OW 1325   1.349   1.898   0.787
  324SOL    HW2 1326   1.352   1.895   0.882
  324SOL    HW3 1327   1.261   1.929   0.767
  324SOL    MW4 1328   1.338   1.902   0.797
  325SOL     OW 1329   1.576   2.004   0.688
  325SOL    HW2 1330   1.491   1.973   0.719
  325SOL    HW3 1331   1.561   2.026   0.596
  325SOL    MW4 1332   1.563   2.003   0.680
  326SOL     OW 1333   1.557   2.253   0.808
  326SOL    HW2 1334   1.475   2.284   0.770
  326SOL    HW3 1335   1.572   2.168   0.766
  326SOL    MW4 1336   1.549   2.246   0.798
  327SOL     OW 1337   1.362   2.415   0.708
  327SOL    HW2 1338   1.371   2.508   0.732
  327SOL    HW3 1339   1.348   2.416   0.614
  327SOL    MW4 1340   1.361   2.428   0.699
  328SOL     OW 1341   1.364   2.710   0.791
  328SOL    HW2 1342   1.353   2.713   0.886
  328SOL    HW3 1343   1.291   2.762   0.757
  328SOL    MW4 1344   1.353   2.717   0.799
  329SOL     OW 1345   1.603   2.831   0.703
  329SOL    HW2 1346   1.583   2.919   0.732
  329SOL    HW3 1347   1.530   2.777   0.736
  329SOL    MW4 1348   1.591   2.835   0.711
  330SOL     OW 1349   1.570   3.083   0.821
  330SOL    HW2 1350   1.571   3.094   0.916
  330SOL    HW3 1351   1.497   3.137   0.791
  330SOL    MW4 1352   1.561   3.092   0.829
  331SOL     OW 1353   1.361   3.225   0.702
  331SOL    HW2 1354   1.274   3.204   0.734
  331SOL    HW3 1355   1.351   3.231   0.607
  331SOL    MW4 1356   1.349   3.223   0.694
  332SOL     OW 1357   1.376   3.471   0.849
  332SOL    HW2 1358   1.432   3.535   0.804
  332SOL    HW3 1359   1.370   3.398   0.788
  332SOL    MW4 1360   1.383   3.470   0.835
  333SOL     OW 1361   1.561   3.671   0.750
  333SOL    HW2 1362   1.640   3.623   0.773
  333SOL    HW3 1363   1.583   3.717   0.669
  333SOL    MW4 1364   1.574   3.670   0.742
  334SOL     OW 1365   1.558   3.934   0.866
  334SOL    HW2 1366   1.493   3.961   0.801
  334SOL    HW3 1367   1.574   3.841   0.846
  334SOL    MW4 1368   1.551   3.925   0.855
  335SOL     OW 1369   1.346   4.030   0.706
  335SOL    HW2 1370   1.281   3.984   0.759
  335SOL    HW3 1371   1.315   4.019   0.616
  335SOL    MW4 1372   1.333   4.022   0.701
  336SOL     OW 1373   1.348   4.266   0.818
  336SOL    HW2 1374   1.428   4.318   0.809
  336SOL    HW3 1375   1.363   4.190   0.761
  336SOL    MW4 1376   1.361   4.263   0.809
  337SOL     OW 1377   1.599   4.391   0.765
  337SOL    HW2 1378   1.687   4.366   0.794
  337SOL    HW3 1379   1.594   4.484   0.785
  337SOL    MW4 1380   1.610   4.400   0.772
  338SOL     OW 1381   1.883   0.046   0.830
  338SOL    HW2 1382   1.930   0.035   0.747
  338SOL    HW3 1383   1.801  -0.002   0.818
  338SOL    MW4 1384   1.879   0.038   0.817
  339SOL     OW 1385   1.642   0.091   0.563
  339SOL    HW2 1386   1.550   0.084   0.536
  339SOL    HW3 1387   1.639   0.085   0.658
  339SOL    MW4 1388   1.629   0.089   0.572
  340SOL     OW 1389   1.773   0.312   0.804
  340SOL    HW2 1390   1.804   0.224   0.826
  340SOL    HW3 1391   1.852   0.360   0.779
  340SOL    MW4 1392   1.787   0.307   0.804
  341SOL     OW 1393   2.007   0.455   0.753
  341SOL    HW2 1394   2.012   0.448   0.657
  341SOL    HW3 1395   2.088   0.414   0.784
  341SOL    MW4 1396   2.018   0.448   0.744
  342SOL     OW 1397   1.994   0.721   0.852
  342SOL    HW2 1398   2.072   0.761   0.814
  342SOL    HW3 1399   2.000   0.628   0.827
  342SOL    MW4 1400   2.005   0.714   0.844
  343SOL     OW 1401   1.787   0.848   0.738
  343SOL    HW2 1402   1.793   0.935   0.777
  343SOL    HW3 1403   1.860   0.799   0.777
  343SOL    MW4 1404   1.797   0.853   0.748
  344SOL     OW 1405   1.791   1.114   0.862
  344SOL    HW2 1406   1.864   1.155   0.815
  344SOL    HW3 1407   1.712   1.146   0.817
  344SOL    MW4 1408   1.790   1.123   0.850
  345SOL     OW 1409   2.023   1.222   0.756
  345SOL    HW2 1410   2.108   1.201   0.795
  345SOL    HW3 1411   2.042   1.243   0.665
  345SOL    MW4 1412   2.036   1.222   0.749
  346SOL     OW 1413   1.992   1.496   0.857
  346SOL    HW2 1414   2.070   1.544   0.830
  346SOL    HW3 1415   2.012   1.404   0.842
  346SOL    MW4 1416   2.005   1.490   0.852
  347SOL     OW 1417   2.185   1.262   0.289
  347SOL    HW2 1418   2.153   1.280   0.201
  347SOL    HW3 1419   2.266   1.313   0.296
  347SOL    MW4 1420   2.191   1.271   0.278
  348SOL     OW 1421   1.794   1.878   0.853
  348SOL    HW2 1422   1.773   1.785   0.857
  348SOL    HW3 1423   1.724   1.915   0.799
  348SOL    MW4 1424   1.782   1.871   0.846
  349SOL     OW 1425   1.978   2.027   0.690
  349SOL    HW2 1426   1.996   2.118   0.712
  349SOL    HW3 1427   1.928   1.993   0.765
  349SOL    MW4 1428   1.974   2.034   0.703
  350SOL     OW 1429   2.010   2.282   0.790
  350SOL    HW2 1430   2.014   2.265   0.884
  350SOL    HW3 1431   1.928   2.330   0.777
  350SOL    MW4 1432   2.000   2.286   0.800
  351SOL     OW 1433   1.769   2.419   0.734
  351SOL    HW2 1434   1.691   2.368   0.759
  351SOL    HW3 1435   1.763   2.425   0.639
  351SOL    MW4 1436   1.758   2.413   0.725
  352SOL     OW 1437   1.824   2.686   0.786
  352SOL    HW2 1438   1.804   2.593   0.777
  352SOL    HW3 1439   1.740   2.729   0.774
  352SOL    MW4 1440   1.810   2.679   0.783
  353SOL     OW 1441   2.017   2.870   0.714
  353SOL    HW2 1442   2.092   2.814   0.733
  353SOL    HW3 1443   1.941   2.816   0.734
  353SOL    MW4 1444   2.017   2.855   0.719
  354SOL     OW 1445   2.028   3.128   0.797
  354SOL    HW2 1446   1.940   3.157   0.777
  354SOL    HW3 1447   2.031   3.037   0.769
  354SOL    MW4 1448   2.017   3.120   0.791
  355SOL     OW 1449   1.789   3.250   0.772
  355SOL    HW2 1450   1.715   3.190   0.777
  355SOL    HW3 1451   1.789   3.280   0.681
  355SOL    MW4 1452   1.779   3.246   0.761
  356SOL     OW 1453   1.783   3.529   0.816
  356SOL    HW2 1454   1.791   3.553   0.908
  356SOL    HW3 1455   1.782   3.433   0.816
  356SOL    MW4 1456   1.784   3.519   0.828
  357SOL     OW 1457   2.034   3.620   0.721
  357SOL    HW2 1458   2.036   3.709   0.756
  357SOL    HW3 1459   1.950   3.585   0.750
  357SOL    MW4 1460   2.023   3.627   0.729
  358SOL     OW 1461   2.032   3.878   0.831
  358SOL    HW2 1462   2.022   3.858   0.924
  358SOL    HW3 1463   1.956   3.932   0.810
  358SOL    MW4 1464   2.021   3.882   0.840
  359SOL     OW 1465   1.810   4.030   0.758
  359SOL    HW2 1466   1.717   4.013   0.774
  359SOL    HW3 1467   1.820   4.021   0.663
  359SOL    MW4 1468   1.799   4.026   0.748
  360SOL     OW 1469   1.843   4.285   0.838
  360SOL    HW2 1470   1.845   4.262   0.931
  360SOL    HW3 1471   1.804   4.208   0.796
  360SOL    MW4 1472   1.838   4.272   0.845
  361SOL     OW 1473   2.054   4.399   0.703
  361SOL    HW2 1474   1.976   4.368   0.748
  361SOL    HW3 1475   2.050   4.359   0.616
  361SOL    MW4 1476   2.043   4.390   0.698
  362SOL     OW 1477   2.477   4.573   0.787
  362SOL    HW2 1478   2.466   4.589   0.881
  362SOL    HW3 1479   2.543   4.637   0.760
  362SOL    MW4 1480   2.484   4.583   0.796
  363SOL     OW 1481   2.295   0.108   0.696
  363SOL    HW2 1482   2.352   0.041   0.734
  363SOL    HW3 1483   2.218   0.060   0.667
  363SOL    MW4 1484   2.292   0.093   0.697
  364SOL     OW 1485   2.249   0.350   0.826
  364SOL    HW2 1486   2.294   0.414   0.771
  364SOL    HW3 1487   2.264   0.266   0.783
  364SOL    MW4 1488   2.257   0.347   0.813
  365SOL     OW 1489   2.458   0.480   0.693
  365SOL    HW2 1490   2.488   0.474   0.602
  365SOL    HW3 1491   2.530   0.443   0.744
  365SOL    MW4 1492   2.472   0.474   0.687
  366SOL     OW 1493   2.496   0.750   0.706
  366SOL    HW2 1494   2.476   0.783   0.618
  366SOL    HW3 1495   2.488   0.655   0.698
  366SOL    MW4 1496   2.492   0.742   0.693
  367SOL     OW 1497   2.207   0.876   0.769
  367SOL    HW2 1498   2.290   0.844   0.733
  367SOL    HW3 1499   2.156   0.903   0.693
  367SOL    MW4 1500   2.211   0.875   0.754
  368SOL     OW 1501   2.259   1.138   0.854
  368SOL    HW2 1502   2.253   1.144   0.950
  368SOL    HW3 1503   2.256   1.044   0.836
  368SOL    MW4 1504   2.258   1.127   0.865
  369SOL     OW 1505   2.479   1.284   0.777
  369SOL    HW2 1506   2.401   1.240   0.812
  369SOL    HW3 1507   2.496   1.240   0.694
  369SOL    MW4 1508   2.471   1.272   0.771
  370SOL     OW 1509   2.479   1.537   0.875
  370SOL    HW2 1510   2.553   1.577   0.829
  370SOL    HW3 1511   2.474   1.449   0.838
  370SOL    MW4 1512   2.488   1.531   0.864
  371SOL     OW 1513   2.227   1.634   0.741
  371SOL    HW2 1514   2.317   1.617   0.767
  371SOL    HW3 1515   2.230   1.646   0.646
  371SOL    MW4 1516   2.239   1.633   0.732
  372SOL     OW 1517   2.208   1.903   0.807
  372SOL    HW2 1518   2.210   1.812   0.779
  372SOL    HW3 1519   2.142   1.944   0.751
  372SOL    MW4 1520   2.199   1.897   0.796
  373SOL     OW 1521   2.445   2.051   0.750
  373SOL    HW2 1522   2.364   2.001   0.753
  373SOL    HW3 1523   2.456   2.076   0.658
  373SOL    MW4 1524   2.435   2.048   0.739
  374SOL     OW 1525   2.451   2.299   0.860
  374SOL    HW2 1526   2.516   2.341   0.805
  374SOL    HW3 1527   2.458   2.206   0.840
  374SOL    MW4 1528   2.460   2.292   0.850
  375SOL     OW 1529   2.242   2.402   0.703
  375SOL    HW2 1530   2.313   2.360   0.751
  375SOL    HW3 1531   2.163   2.357   0.731
  375SOL    MW4 1532   2.241   2.391   0.713
  376SOL     OW 1533   2.209   2.665   0.769
  376SOL    HW2 1534   2.215   2.685   0.862
  376SOL    HW3 1535   2.219   2.570   0.764
  376SOL    MW4 1536   2.211   2.655   0.781
  377SOL     OW 1537   2.432   2.843   0.700
  377SOL    HW2 1538   2.497   2.806   0.759
  377SOL    HW3 1539   2.367   2.773   0.690
  377SOL    MW4 1540   2.432   2.829   0.706
  378SOL     OW 1541   2.431   3.125   0.794
  378SOL    HW2 1542   2.428   3.117   0.890
  378SOL    HW3 1543   2.446   3.036   0.764
  378SOL    MW4 1544   2.433   3.112   0.803
  379SOL     OW 1545   2.223   3.246   0.659
  379SOL    HW2 1546   2.150   3.208   0.708
  379SOL    HW3 1547   2.300   3.201   0.692
  379SOL    MW4 1548   2.223   3.235   0.670
  380SOL     OW 1549   2.265   3.459   0.823
  380SOL    HW2 1550   2.261   3.381   0.766
  380SOL    HW3 1551   2.186   3.509   0.800
  380SOL    MW4 1552   2.254   3.455   0.812
  381SOL     OW 1553   2.503   3.611   0.769
  381SOL    HW2 1554   2.578   3.554   0.786
  381SOL    HW3 1555   2.427   3.557   0.792
  381SOL    MW4 1556   2.503   3.596   0.774
  382SOL     OW 1557   2.507   3.879   0.812
  382SOL    HW2 1558   2.426   3.904   0.768
  382SOL    HW3 1559   2.515   3.785   0.795
  382SOL    MW4 1560   2.497   3.870   0.804
  383SOL     OW 1561   2.260   3.961   0.683
  383SOL    HW2 1562   2.188   3.930   0.736
  383SOL    HW3 1563   2.243   3.925   0.596
  383SOL    MW4 1564   2.248   3.952   0.678
  384SOL     OW 1565   2.272   4.241   0.806
  384SOL    HW2 1566   2.259   4.153   0.771
  384SOL    HW3 1567   2.193   4.289   0.780
  384SOL    MW4 1568   2.260   4.236   0.798
  385SOL     OW 1569   2.583   4.293   0.846
  385SOL    HW2 1570   2.499   4.338   0.845
  385SOL    HW3 1571   2.620   4.314   0.932
  385SOL    MW4 1572   2.577   4.302   0.857
  386SOL     OW 1573   2.916   4.640   0.837
  386SOL    HW2 1574   2.907   4.545   0.834
  386SOL    HW3 1575   2.829   4.673   0.815
  386SOL    MW4 1576   2.904   4.632   0.834
  387SOL     OW 1577   2.733   4.417   0.576
  387SOL    HW2 1578   2.703   4.449   0.491
  387SOL    HW3 1579   2.827   4.436   0.578
  387SOL    MW4 1580   2.741   4.423   0.565
  388SOL     OW 1581   2.665   0.345   0.823
  388SOL    HW2 1582   2.656   0.354   0.918
  388SOL    HW3 1583   2.739   0.401   0.800
  388SOL    MW4 1584   2.673   0.353   0.832
  389SOL     OW 1585   2.893   0.509   0.745
  389SOL    HW2 1586   2.970   0.490   0.799
  389SOL    HW3 1587   2.918   0.483   0.657
  389SOL    MW4 1588   2.906   0.503   0.741
  390SOL     OW 1589   2.925   0.784   0.826
  390SOL    HW2 1590   2.927   0.787   0.922
  390SOL    HW3 1591   2.922   0.691   0.805
  390SOL    MW4 1592   2.925   0.772   0.836
  391SOL     OW 1593   2.723   0.917   0.707
  391SOL    HW2 1594   2.793   0.875   0.758
  391SOL    HW3 1595   2.654   0.851   0.703
  391SOL    MW4 1596   2.723   0.903   0.713
  392SOL     OW 1597   2.716   1.143   0.865
  392SOL    HW2 1598   2.702   1.066   0.811
  392SOL    HW3 1599   2.640   1.199   0.848
  392SOL    MW4 1600   2.705   1.141   0.856
  393SOL     OW 1601   2.911   1.290   0.747
  393SOL    HW2 1602   2.992   1.240   0.737
  393SOL    HW3 1603   2.850   1.228   0.787
  393SOL    MW4 1604   2.914   1.275   0.751
  394SOL     OW 1605   2.860   1.539   0.852
  394SOL    HW2 1606   2.936   1.588   0.820
  394SOL    HW3 1607   2.881   1.447   0.833
  394SOL    MW4 1608   2.873   1.533   0.845
  395SOL     OW 1609   2.670   1.664   0.703
  395SOL    HW2 1610   2.676   1.756   0.727
  395SOL    HW3 1611   2.747   1.623   0.742
  395SOL    MW4 1612   2.681   1.671   0.711
  396SOL     OW 1613   2.685   1.926   0.814
  396SOL    HW2 1614   2.698   1.920   0.909
  396SOL    HW3 1615   2.598   1.965   0.804
  396SOL    MW4 1616   2.675   1.930   0.825
  397SOL     OW 1617   2.817   2.085   0.636
  397SOL    HW2 1618   2.835   2.166   0.684
  397SOL    HW3 1619   2.782   2.025   0.702
  397SOL    MW4 1620   2.815   2.088   0.651
  398SOL     OW 1621   2.884   2.286   0.812
  398SOL    HW2 1622   2.885   2.278   0.908
  398SOL    HW3 1623   2.798   2.324   0.793
  398SOL    MW4 1624   2.873   2.290   0.822
  399SOL     OW 1625   2.664   2.467   0.731
  399SOL    HW2 1626   2.683   2.467   0.637
  399SOL    HW3 1627   2.663   2.560   0.754
  399SOL    MW4 1628   2.666   2.480   0.722
  400SOL     OW 1629   2.667   2.736   0.826
  400SOL    HW2 1630   2.681   2.727   0.921
  400SOL    HW3 1631   2.750   2.773   0.794
  400SOL    MW4 1632   2.680   2.740   0.834
  401SOL     OW 1633   2.886   2.817   0.500
  401SOL    HW2 1634   2.911   2.725   0.503
  401SOL    HW3 1635   2.792   2.815   0.480
  401SOL    MW4 1636   2.877   2.804   0.497
  402SOL     OW 1637   2.898   3.073   0.892
  402SOL    HW2 1638   2.834   3.120   0.840
  402SOL    HW3 1639   2.898   2.984   0.857
  402SOL    MW4 1640   2.890   3.067   0.881
  403SOL     OW 1641   2.687   3.214   0.762
  403SOL    HW2 1642   2.699   3.291   0.817
  403SOL    HW3 1643   2.596   3.188   0.775
  403SOL    MW4 1644   2.677   3.221   0.771
  404SOL     OW 1645   2.731   3.464   0.863
  404SOL    HW2 1646   2.738   3.442   0.956
  404SOL    HW3 1647   2.816   3.502   0.841
  404SOL    MW4 1648   2.743   3.466   0.872
  405SOL     OW 1649   2.973   3.591   0.789
  405SOL    HW2 1650   2.982   3.684   0.812
  405SOL    HW3 1651   2.971   3.591   0.693
  405SOL    MW4 1652   2.974   3.603   0.779
  406SOL     OW 1653   2.984   3.852   0.884
  406SOL    HW2 1654   2.969   3.862   0.978
  406SOL    HW3 1655   2.907   3.891   0.843
  406SOL    MW4 1656   2.972   3.858   0.891
  407SOL     OW 1657   2.739   4.002   0.760
  407SOL    HW2 1658   2.656   3.967   0.791
  407SOL    HW3 1659   2.757   3.954   0.679
  407SOL    MW4 1660   2.731   3.991   0.753
  408SOL     OW 1661   2.892   4.352   0.847
  408SOL    HW2 1662   2.854   4.330   0.932
  408SOL    HW3 1663   2.984   4.327   0.855
  408SOL    MW4 1664   2.899   4.346   0.859
  409SOL     OW 1665   3.073   4.410   0.441
  409SOL    HW2 1666   3.127   4.453   0.507
  409SOL    HW3 1667   3.028   4.341   0.488
  409SOL    MW4 1668   3.074   4.407   0.456
  410SOL     OW 1669   3.349   0.000   0.811
  410SOL    HW2 1670   3.360  -0.017   0.905
  410SOL    HW3 1671   3.271   0.055   0.805
  410SOL    MW4 1672   3.340   0.005   0.823
  411SOL     OW 1673   3.127   0.148   0.754
  411SOL    HW2 1674   3.119   0.240   0.779
  411SOL    HW3 1675   3.040   0.111   0.769
  411SOL    MW4 1676   3.115   0.155   0.759
  412SOL     OW 1677   3.140   0.401   0.847
  412SOL    HW2 1678   3.163   0.394   0.940
  412SOL    HW3 1679   3.212   0.452   0.809
  412SOL    MW4 1680   3.153   0.407   0.855
  413SOL     OW 1681   3.354   0.532   0.718
  413SOL    HW2 1682   3.434   0.481   0.730
  413SOL    HW3 1683   3.335   0.524   0.624
  413SOL    MW4 1684   3.362   0.524   0.707
  414SOL     OW 1685   3.354   0.749   0.881
  414SOL    HW2 1686   3.291   0.794   0.824
  414SOL    HW3 1687   3.359   0.661   0.846
  414SOL    MW4 1688   3.346   0.744   0.869
  415SOL     OW 1689   3.157   0.883   0.728
  415SOL    HW2 1690   3.161   0.975   0.756
  415SOL    HW3 1691   3.072   0.853   0.758
  415SOL    MW4 1692   3.146   0.892   0.736
  416SOL     OW 1693   3.146   1.141   0.819
  416SOL    HW2 1694   3.147   1.147   0.914
  416SOL    HW3 1695   3.226   1.184   0.790
  416SOL    MW4 1696   3.157   1.147   0.828
  417SOL     OW 1697   3.359   1.247   0.726
  417SOL    HW2 1698   3.448   1.221   0.751
  417SOL    HW3 1699   3.344   1.329   0.774
  417SOL    MW4 1700   3.369   1.254   0.736
  418SOL     OW 1701   3.311   1.487   0.830
  418SOL    HW2 1702   3.336   1.519   0.917
  418SOL    HW3 1703   3.386   1.506   0.775
  418SOL    MW4 1704   3.324   1.494   0.835
  419SOL     OW 1705   3.097   1.641   0.759
  419SOL    HW2 1706   3.171   1.589   0.791
  419SOL    HW3 1707   3.093   1.623   0.666
  419SOL    MW4 1708   3.106   1.632   0.751
  420SOL     OW 1709   3.172   1.899   0.808
  420SOL    HW2 1710   3.154   1.924   0.899
  420SOL    HW3 1711   3.129   1.814   0.797
  420SOL    MW4 1712   3.164   1.891   0.819
  421SOL     OW 1713   3.574   1.990   0.851
  421SOL    HW2 1714   3.519   2.068   0.844
  421SOL    HW3 1715   3.527   1.923   0.801
  421SOL    MW4 1716   3.560   1.991   0.844
  422SOL     OW 1717   3.452   2.233   0.843
  422SOL    HW2 1718   3.407   2.260   0.924
  422SOL    HW3 1719   3.535   2.280   0.845
  422SOL    MW4 1720   3.457   2.243   0.854
  423SOL     OW 1721   3.103   2.423   0.724
  423SOL    HW2 1722   3.173   2.365   0.696
  423SOL    HW3 1723   3.030   2.365   0.745
  423SOL    MW4 1724   3.103   2.408   0.724
  424SOL     OW 1725   3.117   2.689   0.798
  424SOL    HW2 1726   3.137   2.596   0.782
  424SOL    HW3 1727   3.178   2.737   0.743
  424SOL    MW4 1728   3.128   2.683   0.789
  425SOL     OW 1729   3.275   2.862   0.654
  425SOL    HW2 1730   3.224   2.878   0.575
  425SOL    HW3 1731   3.343   2.800   0.626
  425SOL    MW4 1732   3.278   2.856   0.640
  426SOL     OW 1733   3.365   3.063   0.822
  426SOL    HW2 1734   3.353   3.058   0.917
  426SOL    HW3 1735   3.357   2.973   0.792
  426SOL    MW4 1736   3.362   3.051   0.831
  427SOL     OW 1737   3.118   3.162   0.750
  427SOL    HW2 1738   3.199   3.114   0.767
  427SOL    HW3 1739   3.050   3.114   0.797
  427SOL    MW4 1740   3.120   3.150   0.758
  428SOL     OW 1741   3.179   3.403   0.882
  428SOL    HW2 1742   3.152   3.324   0.836
  428SOL    HW3 1743   3.106   3.464   0.870
  428SOL    MW4 1744   3.166   3.400   0.875
  429SOL     OW 1745   3.426   4.319   0.579
  429SOL    HW2 1746   3.425   4.254   0.509
  429SOL    HW3 1747   3.508   4.366   0.568
  429SOL    MW4 1748   3.436   4.316   0.568
  430SOL     OW 1749   3.503   3.923   0.837
  430SOL    HW2 1750   3.536   4.013   0.844
  430SOL    HW3 1751   3.467   3.904   0.924
  430SOL    MW4 1752   3.503   3.933   0.849
  431SOL     OW 1753   3.109   4.034   0.715
  431SOL    HW2 1754   3.179   3.980   0.679
  431SOL    HW3 1755   3.072   3.982   0.787
  431SOL    MW4 1756   3.113   4.020   0.720
  432SOL     OW 1757   3.183   4.304   0.841
  432SOL    HW2 1758   3.202   4.371   0.775
  432SOL    HW3 1759   3.191   4.221   0.794
  432SOL    MW4 1760   3.186   4.302   0.826
  433SOL     OW 1761   3.232   4.494   0.636
  433SOL    HW2 1762   3.272   4.555   0.698
  433SOL    HW3 1763   3.305   4.443   0.602
  433SOL    MW4 1764   3.247   4.495   0.640
  434SOL     OW 1765   3.794   0.039   0.820
  434SOL    HW2 1766   3.862   0.094   0.782
  434SOL    HW3 1767   3.714   0.066   0.777
  434SOL    MW4 1768   3.793   0.050   0.810
  435SOL     OW 1769   3.562   0.119   0.683
  435SOL    HW2 1770   3.480   0.076   0.707
  435SOL    HW3 1771   3.565   0.113   0.587
  435SOL    MW4 1772   3.552   0.113   0.673
  436SOL     OW 1773   3.558   0.383   0.784
  436SOL    HW2 1774   3.592   0.395   0.873
  436SOL    HW3 1775   3.550   0.288   0.775
  436SOL    MW4 1776   3.562   0.372   0.795
  437SOL     OW 1777   3.793   0.537   0.746
  437SOL    HW2 1778   3.778   0.628   0.774
  437SOL    HW3 1779   3.712   0.491   0.769
  437SOL    MW4 1780   3.781   0.543   0.753
  438SOL     OW 1781   3.769   0.785   0.869
  438SOL    HW2 1782   3.767   0.759   0.961
  438SOL    HW3 1783   3.853   0.831   0.859
  438SOL    MW4 1784   3.780   0.787   0.879
  439SOL     OW 1785   3.550   0.855   0.722
  439SOL    HW2 1786   3.631   0.838   0.770
  439SOL    HW3 1787   3.481   0.824   0.780
  439SOL    MW4 1788   3.552   0.849   0.736
  440SOL     OW 1789   3.579   1.126   0.815
  440SOL    HW2 1790   3.583   1.118   0.910
  440SOL    HW3 1791   3.565   1.037   0.784
  440SOL    MW4 1792   3.578   1.113   0.823
  441SOL     OW 1793   3.797   1.284   0.741
  441SOL    HW2 1794   3.730   1.221   0.766
  441SOL    HW3 1795   3.815   1.265   0.649
  441SOL    MW4 1796   3.791   1.273   0.732
  442SOL     OW 1797   3.812   1.534   0.840
  442SOL    HW2 1798   3.871   1.572   0.774
  442SOL    HW3 1799   3.800   1.443   0.812
  442SOL    MW4 1800   3.818   1.527   0.828
  443SOL     OW 1801   3.539   1.565   0.683
  443SOL    HW2 1802   3.499   1.652   0.686
  443SOL    HW3 1803   3.614   1.571   0.741
  443SOL    MW4 1804   3.543   1.577   0.691
  444SOL     OW 1805   3.758   1.996   0.655
  444SOL    HW2 1806   3.833   1.951   0.694
  444SOL    HW3 1807   3.686   1.980   0.716
  444SOL    MW4 1808   3.758   1.988   0.669
  445SOL     OW 1809   3.814   2.275   0.598
  445SOL    HW2 1810   3.777   2.321   0.674
  445SOL    HW3 1811   3.797   2.182   0.616
  445SOL    MW4 1812   3.807   2.269   0.610
  446SOL     OW 1813   4.077   1.714   0.411
  446SOL    HW2 1814   4.005   1.726   0.350
  446SOL    HW3 1815   4.038   1.729   0.497
  446SOL    MW4 1816   4.062   1.717   0.414
  447SOL     OW 1817   3.684   2.378   0.833
  447SOL    HW2 1818   3.674   2.473   0.839
  447SOL    HW3 1819   3.725   2.353   0.916
  447SOL    MW4 1820   3.688   2.387   0.845
  448SOL     OW 1821   3.633   2.652   0.828
  448SOL    HW2 1822   3.632   2.644   0.924
  448SOL    HW3 1823   3.707   2.709   0.810
  448SOL    MW4 1824   3.642   2.658   0.839
  449SOL     OW 1825   3.821   2.852   0.759
  449SOL    HW2 1826   3.781   2.927   0.802
  449SOL    HW3 1827   3.851   2.886   0.674
  449SOL    MW4 1828   3.820   2.866   0.753
  450SOL     OW 1829   3.701   3.059   0.911
  450SOL    HW2 1830   3.718   3.136   0.856
  450SOL    HW3 1831   3.607   3.064   0.929
  450SOL    MW4 1832   3.691   3.070   0.906
  451SOL     OW 1833   3.400   3.467   0.692
  451SOL    HW2 1834   3.431   3.378   0.675
  451SOL    HW3 1835   3.327   3.456   0.752
  451SOL    MW4 1836   3.394   3.454   0.698
  452SOL     OW 1837   3.619   3.520   0.844
  452SOL    HW2 1838   3.669   3.444   0.815
  452SOL    HW3 1839   3.536   3.513   0.798
  452SOL    MW4 1840   3.615   3.509   0.834
  453SOL     OW 1841   3.862   3.636   0.643
  453SOL    HW2 1842   3.791   3.688   0.681
  453SOL    HW3 1843   3.916   3.611   0.718
  453SOL    MW4 1844   3.859   3.639   0.658
  454SOL     OW 1845   3.743   3.772   0.869
  454SOL    HW2 1846   3.664   3.819   0.842
  454SOL    HW3 1847   3.716   3.681   0.876
  454SOL    MW4 1848   3.729   3.766   0.866
  455SOL     OW 1849   2.637   4.134   0.270
  455SOL    HW2 1850   2.599   4.213   0.232
  455SOL    HW3 1851   2.639   4.151   0.364
  455SOL    MW4 1852   2.632   4.147   0.277
  456SOL     OW 1853   3.531   4.225   0.865
  456SOL    HW2 1854   3.616   4.219   0.821
  456SOL    HW3 1855   3.487   4.300   0.825
  456SOL    MW4 1856   3.536   4.234   0.854
  457SOL     OW 1857   3.905   4.482   0.653
  457SOL    HW2 1858   3.933   4.415   0.716
  457SOL    HW3 1859   3.851   4.542   0.705
  457SOL    MW4 1860   3.902   4.481   0.668
  458SOL     OW 1861   4.242   4.659   0.799
  458SOL    HW2 1862   4.231   4.671   0.893
  458SOL    HW3 1863   4.175   4.715   0.759
  458SOL    MW4 1864   4.232   4.668   0.806
  459SOL     OW 1865   4.031   0.133   0.691
  459SOL    HW2 1866   4.040   0.222   0.725
  459SOL    HW3 1867   4.049   0.142   0.597
  459SOL    MW4 1868   4.035   0.146   0.683
  460SOL     OW 1869   4.044   0.379   0.852
  460SOL    HW2 1870   4.115   0.425   0.807
  460SOL    HW3 1871   3.964   0.424   0.824
  460SOL    MW4 1872   4.043   0.391   0.842
  461SOL     OW 1873   4.230   0.536   0.721
  461SOL    HW2 1874   4.307   0.492   0.757
  461SOL    HW3 1875   4.238   0.524   0.626
  461SOL    MW4 1876   4.241   0.528   0.713
  462SOL     OW 1877   4.249   0.775   0.855
  462SOL    HW2 1878   4.167   0.824   0.849
  462SOL    HW3 1879   4.238   0.701   0.795
  462SOL    MW4 1880   4.237   0.771   0.846
  463SOL     OW 1881   4.011   0.903   0.782
  463SOL    HW2 1882   4.029   0.995   0.799
  463SOL    HW3 1883   4.051   0.886   0.696
  463SOL    MW4 1884   4.019   0.913   0.773
  464SOL     OW 1885   4.048   1.167   0.849
  464SOL    HW2 1886   4.047   1.162   0.945
  464SOL    HW3 1887   3.964   1.206   0.827
  464SOL    MW4 1888   4.037   1.172   0.859
  465SOL     OW 1889   4.293   1.312   0.813
  465SOL    HW2 1890   4.216   1.256   0.809
  465SOL    HW3 1891   4.366   1.252   0.827
  465SOL    MW4 1892   4.293   1.297   0.814
  466SOL     OW 1893   4.262   1.576   0.874
  466SOL    HW2 1894   4.278   1.580   0.968
  466SOL    HW3 1895   4.264   1.483   0.853
  466SOL    MW4 1896   4.264   1.564   0.884
  467SOL     OW 1897   4.047   1.613   0.690
  467SOL    HW2 1898   4.120   1.611   0.752
  467SOL    HW3 1899   4.046   1.525   0.651
  467SOL    MW4 1900   4.056   1.601   0.693
  468SOL     OW 1901   4.008   1.898   0.774
  468SOL    HW2 1902   4.025   1.806   0.753
  468SOL    HW3 1903   4.095   1.940   0.772
  468SOL    MW4 1904   4.022   1.892   0.771
  469SOL     OW 1905   4.266   1.998   0.749
  469SOL    HW2 1906   4.340   1.980   0.807
  469SOL    HW3 1907   4.306   2.012   0.663
  469SOL    MW4 1908   4.281   1.998   0.745
  470SOL     OW 1909   4.233   2.279   0.811
  470SOL    HW2 1910   4.177   2.307   0.739
  470SOL    HW3 1911   4.232   2.183   0.806
  470SOL    MW4 1912   4.225   2.270   0.801
  471SOL     OW 1913   4.004   2.600   0.577
  471SOL    HW2 1914   4.031   2.644   0.657
  471SOL    HW3 1915   3.912   2.624   0.565
  471SOL    MW4 1916   3.996   2.609   0.586
  472SOL     OW 1917   4.063   2.735   0.817
  472SOL    HW2 1918   4.129   2.789   0.774
  472SOL    HW3 1919   3.985   2.791   0.821
  472SOL    MW4 1920   4.061   2.749   0.812
  473SOL     OW 1921   4.262   2.883   0.697
  473SOL    HW2 1922   4.331   2.821   0.718
  473SOL    HW3 1923   4.260   2.886   0.601
  473SOL    MW4 1924   4.271   2.876   0.687
  474SOL     OW 1925   4.237   3.120   0.829
  474SOL    HW2 1926   4.231   3.044   0.771
  474SOL    HW3 1927   4.307   3.174   0.792
  474SOL    MW4 1928   4.245   3.117   0.816
  475SOL     OW 1929   4.044   3.296   0.737
  475SOL    HW2 1930   4.064   3.379   0.779
  475SOL    HW3 1931   4.106   3.234   0.775
  475SOL    MW4 1932   4.055   3.299   0.747
  476SOL     OW 1933   4.056   3.539   0.846
  476SOL    HW2 1934   4.058   3.524   0.941
  476SOL    HW3 1935   4.146   3.564   0.824
  476SOL    MW4 1936   4.068   3.540   0.856
  477SOL     OW 1937   4.313   3.611   0.776
  477SOL    HW2 1938   4.277   3.693   0.811
  477SOL    HW3 1939   4.306   3.621   0.681
  477SOL    MW4 1940   4.307   3.623   0.768
  478SOL     OW 1941   4.205   3.834   0.860
  478SOL    HW2 1942   4.228   3.857   0.950
  478SOL    HW3 1943   4.118   3.873   0.847
  478SOL    MW4 1944   4.197   3.842   0.870
  479SOL     OW 1945   3.965   3.937   0.751
  479SOL    HW2 1946   3.892   3.884   0.784
  479SOL    HW3 1947   3.970   3.915   0.658
  479SOL    MW4 1948   3.956   3.927   0.743
  480SOL     OW 1949   4.007   4.257   0.816
  480SOL    HW2 1950   4.080   4.199   0.794
  480SOL    HW3 1951   3.930   4.212   0.781
  480SOL    MW4 1952   4.006   4.243   0.808
  481SOL     OW 1953   4.322   4.421   0.694
  481SOL    HW2 1954   4.282   4.494   0.741
  481SOL    HW3 1955   4.399   4.397   0.746
  481SOL    MW4 1956   4.327   4.427   0.707
  482SOL     OW 1957   0.203   4.663   1.096
  482SOL    HW2 1958   0.285   4.705   1.120
  482SOL    HW3 1959   0.195   4.677   1.002
  482SOL    MW4 1960   0.212   4.670   1.087
  483SOL     OW 1961   0.001   0.157   1.227
  483SOL    HW2 1962  -0.062   0.127   1.161
  483SOL    HW3 1963   0.078   0.101   1.214
  483SOL    MW4 1964   0.003   0.146   1.217
  484SOL     OW 1965   0.030   0.404   1.130
  484SOL    HW2 1966  -0.052   0.445   1.161
  484SOL    HW3 1967   0.019   0.311   1.150
  484SOL    MW4 1968   0.017   0.397   1.137
  485SOL     OW 1969   0.235   0.553   1.218
  485SOL    HW2 1970   0.241   0.626   1.157
  485SOL    HW3 1971   0.165   0.498   1.183
  485SOL    MW4 1972   0.226   0.555   1.206
  486SOL     OW 1973   0.211   0.797   1.091
  486SOL    HW2 1974   0.282   0.832   1.147
  486SOL    HW3 1975   0.132   0.837   1.127
  486SOL    MW4 1976   0.210   0.807   1.103
  487SOL     OW 1977   4.465   0.909   1.207
  487SOL    HW2 1978   4.470   0.912   1.303
  487SOL    HW3 1979   4.389   0.852   1.190
  487SOL    MW4 1980   4.455   0.902   1.218
  488SOL     OW 1981   4.433   1.176   1.123
  488SOL    HW2 1982   4.352   1.221   1.145
  488SOL    HW3 1983   4.435   1.099   1.180
  488SOL    MW4 1984   4.423   1.171   1.133
  489SOL     OW 1985   0.209   1.270   1.223
  489SOL    HW2 1986   0.281   1.226   1.178
  489SOL    HW3 1987   0.130   1.238   1.180
  489SOL    MW4 1988   0.208   1.260   1.211
  490SOL     OW 1989   0.252   1.539   1.137
  490SOL    HW2 1990   0.235   1.451   1.168
  490SOL    HW3 1991   0.222   1.539   1.046
  490SOL    MW4 1992   0.246   1.528   1.129
  491SOL     OW 1993   0.033   1.673   1.260
  491SOL    HW2 1994   0.025   1.757   1.216
  491SOL    HW3 1995   0.113   1.634   1.224
  491SOL    MW4 1996   0.042   1.679   1.250
  492SOL     OW 1997   0.027   1.929   1.121
  492SOL    HW2 1998  -0.054   1.979   1.132
  492SOL    HW3 1999   0.037   1.919   1.026
  492SOL    MW4 2000   0.017   1.934   1.110
  493SOL     OW 2001   0.249   2.058   1.204
  493SOL    HW2 2002   0.234   2.146   1.170
  493SOL    HW3 2003   0.170   2.010   1.181
  493SOL    MW4 2004   0.237   2.063   1.196
  494SOL     OW 2005   0.195   2.323   1.116
  494SOL    HW2 2006   0.275   2.349   1.160
  494SOL    HW3 2007   0.126   2.373   1.159
  494SOL    MW4 2008   0.196   2.333   1.127
  495SOL     OW 2009   4.477   2.455   1.217
  495SOL    HW2 2010   4.470   2.448   1.312
  495SOL    HW3 2011   4.396   2.418   1.184
  495SOL    MW4 2012   4.466   2.449   1.225
  496SOL     OW 2013   0.024   2.700   1.124
  496SOL    HW2 2014  -0.053   2.750   1.153
  496SOL    HW3 2015   0.011   2.613   1.161
  496SOL    MW4 2016   0.012   2.695   1.132
  497SOL     OW 2017   0.258   2.830   1.209
  497SOL    HW2 2018   0.257   2.821   1.304
  497SOL    HW3 2019   0.173   2.797   1.181
  497SOL    MW4 2020   0.247   2.825   1.218
  498SOL     OW 2021   0.278   3.090   1.092
  498SOL    HW2 2022   0.345   3.136   1.143
  498SOL    HW3 2023   0.284   2.999   1.121
  498SOL    MW4 2024   0.288   3.084   1.102
  499SOL     OW 2025   0.019   3.198   1.210
  499SOL    HW2 2026  -0.050   3.142   1.175
  499SOL    HW3 2027   0.100   3.157   1.181
  499SOL    MW4 2028   0.021   3.185   1.201
  500SOL     OW 2029   0.013   3.474   1.153
  500SOL    HW2 2030   0.023   3.382   1.174
  500SOL    HW3 2031   0.028   3.479   1.058
  500SOL    MW4 2032   0.016   3.463   1.143
  501SOL     OW 2033   0.209   3.645   1.257
  501SOL    HW2 2034   0.231   3.627   1.348
  501SOL    HW3 2035   0.136   3.586   1.237
  501SOL    MW4 2036   0.202   3.635   1.266
  502SOL     OW 2037   0.194   3.898   1.078
  502SOL    HW2 2038   0.110   3.933   1.109
  502SOL    HW3 2039   0.210   3.821   1.134
  502SOL    MW4 2040   0.185   3.892   1.090
  503SOL     OW 2041   4.478   4.034   1.192
  503SOL    HW2 2042   4.480   4.030   1.288
  503SOL    HW3 2043   4.398   3.987   1.168
  503SOL    MW4 2044   4.467   4.028   1.201
  504SOL     OW 2045   4.476   4.292   1.105
  504SOL    HW2 2046   4.557   4.328   1.142
  504SOL    HW3 2047   4.470   4.204   1.141
  504SOL    MW4 2048   4.486   4.285   1.114
  505SOL     OW 2049   0.207   4.406   1.242
  505SOL    HW2 2050   0.223   4.432   1.332
  505SOL    HW3 2051   0.215   4.487   1.192
  505SOL    MW4 2052   0.210   4.420   1.247
  506SOL     OW 2053   0.672   0.018   1.056
  506SOL    HW2 2054   0.736   0.078   1.094
  506SOL    HW3 2055   0.679  -0.061   1.109
  506SOL    MW4 2056   0.681   0.015   1.068
  507SOL     OW 2057   0.440   0.125   1.151
  507SOL    HW2 2058   0.449   0.220   1.143
  507SOL    HW3 2059   0.515   0.090   1.102
  507SOL    MW4 2060   0.451   0.133   1.143
  508SOL     OW 2061   0.455   0.413   1.136
  508SOL    HW2 2062   0.382   0.471   1.156
  508SOL    HW3 2063   0.451   0.400   1.041
  508SOL    MW4 2064   0.445   0.419   1.126
  509SOL     OW 2065   0.687   0.546   1.227
  509SOL    HW2 2066   0.676   0.635   1.192
  509SOL    HW3 2067   0.607   0.500   1.202
  509SOL    MW4 2068   0.675   0.552   1.219
  510SOL     OW 2069   0.693   0.794   1.104
  510SOL    HW2 2070   0.611   0.834   1.134
  510SOL    HW3 2071   0.695   0.811   1.010
  510SOL    MW4 2072   0.682   0.802   1.096
  511SOL     OW 2073   0.446   0.894   1.191
  511SOL    HW2 2074   0.448   0.890   1.286
  511SOL    HW3 2075   0.450   0.987   1.170
  511SOL    MW4 2076   0.447   0.905   1.200
  512SOL     OW 2077   0.448   1.164   1.098
  512SOL    HW2 2078   0.524   1.214   1.127
  512SOL    HW3 2079   0.447   1.173   1.003
  512SOL    MW4 2080   0.458   1.172   1.090
  513SOL     OW 2081   0.698   1.295   1.195
  513SOL    HW2 2082   0.788   1.267   1.179
  513SOL    HW3 2083   0.692   1.381   1.154
  513SOL    MW4 2084   0.709   1.303   1.188
  514SOL     OW 2085   0.667   1.561   1.077
  514SOL    HW2 2086   0.752   1.589   1.111
  514SOL    HW3 2087   0.603   1.601   1.136
  514SOL    MW4 2088   0.670   1.570   1.089
  515SOL     OW 2089   0.475   1.690   1.229
  515SOL    HW2 2090   0.480   1.692   1.325
  515SOL    HW3 2091   0.402   1.632   1.211
  515SOL    MW4 2092   0.466   1.683   1.240
  516SOL     OW 2093   0.500   1.950   1.099
  516SOL    HW2 2094   0.503   1.860   1.130
  516SOL    HW3 2095   0.431   1.991   1.150
  516SOL    MW4 2096   0.492   1.944   1.110
  517SOL     OW 2097   0.710   2.064   1.257
  517SOL    HW2 2098   0.713   2.060   1.353
  517SOL    HW3 2099   0.635   2.009   1.233
  517SOL    MW4 2100   0.700   2.056   1.266
  518SOL     OW 2101   0.683   2.337   1.148
  518SOL    HW2 2102   0.599   2.364   1.186
  518SOL    HW3 2103   0.700   2.251   1.187
  518SOL    MW4 2104   0.674   2.329   1.158
  519SOL     OW 2105   0.431   2.411   1.256
  519SOL    HW2 2106   0.440   2.410   1.351
  519SOL    HW3 2107   0.437   2.503   1.233
  519SOL    MW4 2108   0.433   2.423   1.266
  520SOL     OW 2109   0.483   2.670   1.126
  520SOL    HW2 2110   0.416   2.726   1.164
  520SOL    HW3 2111   0.476   2.683   1.031
  520SOL    MW4 2112   0.473   2.679   1.118
  521SOL     OW 2113   0.678   2.844   1.252
  521SOL    HW2 2114   0.675   2.929   1.208
  521SOL    HW3 2115   0.618   2.789   1.201
  521SOL    MW4 2116   0.670   2.848   1.239
  522SOL     OW 2117   0.685   3.092   1.140
  522SOL    HW2 2118   0.764   3.139   1.168
  522SOL    HW3 2119   0.687   3.097   1.044
  522SOL    MW4 2120   0.696   3.099   1.131
  523SOL     OW 2121   0.446   3.264   1.223
  523SOL    HW2 2122   0.452   3.355   1.193
  523SOL    HW3 2123   0.532   3.227   1.206
  523SOL    MW4 2124   0.458   3.271   1.217
  524SOL     OW 2125   0.441   3.523   1.130
  524SOL    HW2 2126   0.517   3.572   1.162
  524SOL    HW3 2127   0.366   3.569   1.169
  524SOL    MW4 2128   0.441   3.536   1.140
  525SOL     OW 2129   0.657   3.674   1.209
  525SOL    HW2 2130   0.645   3.663   1.303
  525SOL    HW3 2131   0.653   3.769   1.195
  525SOL    MW4 2132   0.655   3.685   1.219
  526SOL     OW 2133   0.692   3.938   1.155
  526SOL    HW2 2134   0.600   3.959   1.170
  526SOL    HW3 2135   0.698   3.916   1.062
  526SOL    MW4 2136   0.681   3.938   1.145
  527SOL     OW 2137   0.431   4.032   1.221
  527SOL    HW2 2138   0.432   4.123   1.189
  527SOL    HW3 2139   0.346   3.998   1.191
  527SOL    MW4 2140   0.420   4.040   1.213
  528SOL     OW 2141   0.433   4.290   1.105
  528SOL    HW2 2142   0.505   4.342   1.142
  528SOL    HW3 2143   0.354   4.329   1.143
  528SOL    MW4 2144   0.432   4.302   1.115
  529SOL     OW 2145   0.674   4.455   1.198
  529SOL    HW2 2146   0.674   4.452   1.294
  529SOL    HW3 2147   0.747   4.398   1.173
  529SOL    MW4 2148   0.684   4.447   1.208
  530SOL     OW 2149   1.080   0.000   1.128
  530SOL    HW2 2150   1.082  -0.086   1.169
  530SOL    HW3 2151   1.070  -0.018   1.035
  530SOL    MW4 2152   1.079  -0.014   1.121
  531SOL     OW 2153   0.871   0.152   1.176
  531SOL    HW2 2154   0.862   0.145   1.271
  531SOL    HW3 2155   0.947   0.097   1.156
  531SOL    MW4 2156   0.880   0.144   1.186
  532SOL     OW 2157   0.928   0.414   1.122
  532SOL    HW2 2158   0.923   0.324   1.154
  532SOL    HW3 2159   0.860   0.460   1.171
  532SOL    MW4 2160   0.918   0.408   1.133
  533SOL     OW 2161   1.193   0.500   1.202
  533SOL    HW2 2162   1.192   0.519   1.295
  533SOL    HW3 2163   1.105   0.466   1.183
  533SOL    MW4 2164   1.181   0.498   1.212
  534SOL     OW 2165   1.125   0.775   1.099
  534SOL    HW2 2166   1.056   0.814   1.153
  534SOL    HW3 2167   1.133   0.685   1.131
  534SOL    MW4 2168   1.117   0.768   1.110
  535SOL     OW 2169   0.927   0.897   1.238
  535SOL    HW2 2170   0.940   0.992   1.228
  535SOL    HW3 2171   0.859   0.876   1.175
  535SOL    MW4 2172   0.920   0.907   1.228
  536SOL     OW 2173   0.935   1.150   1.135
  536SOL    HW2 2174   1.019   1.194   1.130
  536SOL    HW3 2175   0.907   1.139   1.044
  536SOL    MW4 2176   0.942   1.154   1.123
  537SOL     OW 2177   1.190   1.284   1.164
  537SOL    HW2 2178   1.166   1.267   1.255
  537SOL    HW3 2179   1.247   1.211   1.140
  537SOL    MW4 2180   1.194   1.272   1.173
  538SOL     OW 2181   1.175   1.542   1.114
  538SOL    HW2 2182   1.183   1.448   1.128
  538SOL    HW3 2183   1.152   1.551   1.021
  538SOL    MW4 2184   1.173   1.531   1.103
  539SOL     OW 2185   0.912   1.662   1.182
  539SOL    HW2 2186   0.912   1.757   1.173
  539SOL    HW3 2187   1.001   1.636   1.160
  539SOL    MW4 2188   0.924   1.671   1.178
  540SOL     OW 2189   0.920   1.924   1.126
  540SOL    HW2 2190   1.001   1.965   1.156
  540SOL    HW3 2191   0.851   1.980   1.161
  540SOL    MW4 2192   0.922   1.937   1.135
  541SOL     OW 2193   1.190   2.037   1.227
  541SOL    HW2 2194   1.165   2.048   1.319
  541SOL    HW3 2195   1.179   2.124   1.189
  541SOL    MW4 2196   1.185   2.050   1.235
  542SOL     OW 2197   1.123   2.282   1.116
  542SOL    HW2 2198   1.211   2.317   1.130
  542SOL    HW3 2199   1.064   2.350   1.150
  542SOL    MW4 2200   1.127   2.295   1.122
  543SOL     OW 2201   0.928   2.460   1.229
  543SOL    HW2 2202   0.911   2.467   1.323
  543SOL    HW3 2203   0.857   2.405   1.196
  543SOL    MW4 2204   0.916   2.454   1.237
  544SOL     OW 2205   0.895   2.713   1.141
  544SOL    HW2 2206   0.884   2.622   1.166
  544SOL    HW3 2207   0.817   2.757   1.176
  544SOL    MW4 2208   0.883   2.707   1.149
  545SOL     OW 2209   1.103   2.878   1.202
  545SOL    HW2 2210   1.124   2.876   1.295
  545SOL    HW3 2211   1.023   2.827   1.194
  545SOL    MW4 2212   1.095   2.871   1.213
  546SOL     OW 2213   1.123   3.126   1.085
  546SOL    HW2 2214   1.107   3.037   1.114
  546SOL    HW3 2215   1.127   3.120   0.989
  546SOL    MW4 2216   1.122   3.114   1.076
  547SOL     OW 2217   0.918   3.250   1.234
  547SOL    HW2 2218   0.920   3.338   1.196
  547SOL    HW3 2219   0.989   3.204   1.191
  547SOL    MW4 2220   0.927   3.256   1.223
  548SOL     OW 2221   0.912   3.531   1.154
  548SOL    HW2 2222   0.837   3.586   1.175
  548SOL    HW3 2223   0.898   3.504   1.064
  548SOL    MW4 2224   0.900   3.535   1.145
  549SOL     OW 2225   1.149   3.635   1.254
  549SOL    HW2 2226   1.215   3.579   1.213
  549SOL    HW3 2227   1.065   3.598   1.227
  549SOL    MW4 2228   1.147   3.623   1.245
  550SOL     OW 2229   1.153   3.895   1.164
  550SOL    HW2 2230   1.073   3.930   1.204
  550SOL    HW3 2231   1.157   3.804   1.194
  550SOL    MW4 2232   1.143   3.888   1.173
  551SOL     OW 2233   0.928   4.011   1.262
  551SOL    HW2 2234   0.903   3.996   1.353
  551SOL    HW3 2235   0.851   3.987   1.211
  551SOL    MW4 2236   0.915   4.006   1.267
  552SOL     OW 2237   0.901   4.256   1.143
  552SOL    HW2 2238   0.897   4.174   1.192
  552SOL    HW3 2239   0.898   4.230   1.051
  552SOL    MW4 2240   0.900   4.242   1.138
  553SOL     OW 2241   1.136   4.404   1.207
  553SOL    HW2 2242   1.140   4.392   1.302
  553SOL    HW3 2243   1.062   4.350   1.179
  553SOL    MW4 2244   1.127   4.395   1.216
  554SOL     OW 2245   1.567   4.622   1.109
  554SOL    HW2 2246   1.640   4.671   1.148
  554SOL    HW3 2247   1.579   4.532   1.139
  554SOL    MW4 2248   1.578   4.617   1.118
  555SOL     OW 2249   1.342   0.112   1.156
  555SOL    HW2 2250   1.404   0.039   1.149
  555SOL    HW3 2251   1.256   0.071   1.148
  555SOL    MW4 2252   1.339   0.097   1.154
  556SOL     OW 2253   1.381   0.359   1.058
  556SOL    HW2 2254   1.363   0.273   1.096
  556SOL    HW3 2255   1.323   0.419   1.105
  556SOL    MW4 2256   1.371   0.356   1.069
  557SOL     OW 2257   1.576   0.477   1.197
  557SOL    HW2 2258   1.585   0.569   1.172
  557SOL    HW3 2259   1.503   0.445   1.144
  557SOL    MW4 2260   1.567   0.485   1.187
  558SOL     OW 2261   1.579   0.744   1.106
  558SOL    HW2 2262   1.667   0.773   1.128
  558SOL    HW3 2263   1.578   0.743   1.010
  558SOL    MW4 2264   1.590   0.747   1.096
  559SOL     OW 2265   1.368   0.854   1.244
  559SOL    HW2 2266   1.456   0.835   1.213
  559SOL    HW3 2267   1.310   0.808   1.183
  559SOL    MW4 2268   1.372   0.846   1.232
  560SOL     OW 2269   1.362   1.088   1.101
  560SOL    HW2 2270   1.359   1.004   1.146
  560SOL    HW3 2271   1.349   1.067   1.009
  560SOL    MW4 2272   1.360   1.074   1.095
  561SOL     OW 2273   1.591   1.233   1.214
  561SOL    HW2 2274   1.673   1.195   1.186
  561SOL    HW3 2275   1.523   1.180   1.172
  561SOL    MW4 2276   1.593   1.221   1.205
  562SOL     OW 2277   1.585   1.490   1.086
  562SOL    HW2 2278   1.645   1.546   1.135
  562SOL    HW3 2279   1.582   1.408   1.136
  562SOL    MW4 2280   1.593   1.487   1.099
  563SOL     OW 2281   1.406   1.668   1.186
  563SOL    HW2 2282   1.469   1.609   1.143
  563SOL    HW3 2283   1.322   1.623   1.180
  563SOL    MW4 2284   1.404   1.655   1.179
  564SOL     OW 2285   1.363   1.908   1.053
  564SOL    HW2 2286   1.379   1.828   1.102
  564SOL    HW3 2287   1.303   1.958   1.108
  564SOL    MW4 2288   1.357   1.904   1.067
  565SOL     OW 2289   1.555   2.055   1.176
  565SOL    HW2 2290   1.564   2.146   1.146
  565SOL    HW3 2291   1.497   2.014   1.112
  565SOL    MW4 2292   1.549   2.061   1.163
  566SOL     OW 2293   1.601   2.328   1.103
  566SOL    HW2 2294   1.513   2.346   1.136
  566SOL    HW3 2295   1.590   2.325   1.008
  566SOL    MW4 2296   1.588   2.330   1.095
  567SOL     OW 2297   1.352   2.423   1.170
  567SOL    HW2 2298   1.359   2.425   1.266
  567SOL    HW3 2299   1.353   2.515   1.145
  567SOL    MW4 2300   1.353   2.436   1.180
  568SOL     OW 2301   1.337   2.724   1.082
  568SOL    HW2 2302   1.416   2.756   1.126
  568SOL    HW3 2303   1.267   2.782   1.113
  568SOL    MW4 2304   1.338   2.736   1.092
  569SOL     OW 2305   1.567   2.850   1.211
  569SOL    HW2 2306   1.642   2.812   1.166
  569SOL    HW3 2307   1.554   2.935   1.168
  569SOL    MW4 2308   1.575   2.856   1.200
  570SOL     OW 2309   1.539   3.117   1.099
  570SOL    HW2 2310   1.622   3.159   1.121
  570SOL    HW3 2311   1.472   3.171   1.142
  570SOL    MW4 2312   1.541   3.130   1.108
  571SOL     OW 2313   1.356   3.267   1.226
  571SOL    HW2 2314   1.346   3.262   1.321
  571SOL    HW3 2315   1.282   3.216   1.192
  571SOL    MW4 2316   1.345   3.260   1.234
  572SOL     OW 2317   1.370   3.539   1.123
  572SOL    HW2 2318   1.366   3.447   1.150
  572SOL    HW3 2319   1.380   3.536   1.028
  572SOL    MW4 2320   1.371   3.526   1.114
  573SOL     OW 2321   1.594   3.665   1.232
  573SOL    HW2 2322   1.597   3.756   1.200
  573SOL    HW3 2323   1.514   3.629   1.194
  573SOL    MW4 2324   1.584   3.672   1.223
  574SOL     OW 2325   1.594   3.937   1.137
  574SOL    HW2 2326   1.513   3.967   1.178
  574SOL    HW3 2327   1.578   3.943   1.043
  574SOL    MW4 2328   1.582   3.942   1.130
  575SOL     OW 2329   1.379   4.057   1.250
  575SOL    HW2 2330   1.374   4.136   1.196
  575SOL    HW3 2331   1.309   4.001   1.217
  575SOL    MW4 2332   1.369   4.060   1.238
  576SOL     OW 2333   1.363   4.274   1.087
  576SOL    HW2 2334   1.291   4.327   1.121
  576SOL    HW3 2335   1.343   4.264   0.994
  576SOL    MW4 2336   1.351   4.279   1.079
  577SOL     OW 2337   1.612   4.355   1.182
  577SOL    HW2 2338   1.603   4.338   1.276
  577SOL    HW3 2339   1.524   4.337   1.147
  577SOL    MW4 2340   1.599   4.350   1.190
  578SOL     OW 2341   2.024   4.638   1.062
  578SOL    HW2 2342   2.032   4.544   1.075
  578SOL    HW3 2343   1.995   4.647   0.971
  578SOL    MW4 2344   2.021   4.627   1.052
  579SOL     OW 2345   1.813   0.090   1.196
  579SOL    HW2 2346   1.801   0.174   1.152
  579SOL    HW3 2347   1.879   0.045   1.145
  579SOL    MW4 2348   1.820   0.095   1.184
  580SOL     OW 2349   1.783   0.332   1.084
  580SOL    HW2 2350   1.706   0.384   1.106
  580SOL    HW3 2351   1.788   0.336   0.988
  580SOL    MW4 2352   1.774   0.340   1.074
  581SOL     OW 2353   1.998   0.454   1.178
  581SOL    HW2 2354   1.989   0.482   1.269
  581SOL    HW3 2355   1.912   0.417   1.156
  581SOL    MW4 2356   1.985   0.453   1.187
  582SOL     OW 2357   2.059   0.729   1.131
  582SOL    HW2 2358   2.039   0.636   1.137
  582SOL    HW3 2359   2.056   0.748   1.037
  582SOL    MW4 2360   2.056   0.719   1.119
  583SOL     OW 2361   1.808   0.819   1.209
  583SOL    HW2 2362   1.832   0.853   1.295
  583SOL    HW3 2363   1.889   0.783   1.173
  583SOL    MW4 2364   1.822   0.819   1.216
  584SOL     OW 2365   1.815   1.104   1.146
  584SOL    HW2 2366   1.805   1.011   1.166
  584SOL    HW3 2367   1.810   1.110   1.050
  584SOL    MW4 2368   1.813   1.093   1.136
  585SOL     OW 2369   2.007   1.282   1.261
  585SOL    HW2 2370   2.080   1.239   1.216
  585SOL    HW3 2371   1.930   1.229   1.239
  585SOL    MW4 2372   2.006   1.269   1.252
  586SOL     OW 2373   2.035   1.539   1.133
  586SOL    HW2 2374   2.036   1.453   1.175
  586SOL    HW3 2375   2.030   1.520   1.039
  586SOL    MW4 2376   2.035   1.525   1.126
  587SOL     OW 2377   1.792   1.649   1.198
  587SOL    HW2 2378   1.797   1.743   1.183
  587SOL    HW3 2379   1.883   1.620   1.193
  587SOL    MW4 2380   1.805   1.657   1.195
  588SOL     OW 2381   1.806   1.936   1.128
  588SOL    HW2 2382   1.714   1.946   1.154
  588SOL    HW3 2383   1.802   1.924   1.033
  588SOL    MW4 2384   1.793   1.936   1.119
  589SOL     OW 2385   2.029   2.084   1.230
  589SOL    HW2 2386   2.033   2.079   1.326
  589SOL    HW3 2387   1.966   2.017   1.205
  589SOL    MW4 2388   2.021   2.075   1.240
  590SOL     OW 2389   2.029   2.301   1.070
  590SOL    HW2 2390   2.096   2.361   1.102
  590SOL    HW3 2391   2.028   2.230   1.134
  590SOL    MW4 2392   2.038   2.300   1.082
  591SOL     OW 2393   1.829   2.466   1.165
  591SOL    HW2 2394   1.903   2.420   1.125
  591SOL    HW3 2395   1.754   2.407   1.151
  591SOL    MW4 2396   1.829   2.452   1.158
  592SOL     OW 2397   1.773   2.722   1.065
  592SOL    HW2 2398   1.805   2.638   1.099
  592SOL    HW3 2399   1.782   2.714   0.970
  592SOL    MW4 2400   1.778   2.710   1.057
  593SOL     OW 2401   1.996   2.857   1.165
  593SOL    HW2 2402   1.993   2.943   1.124
  593SOL    HW3 2403   1.927   2.807   1.121
  593SOL    MW4 2404   1.986   2.861   1.154
  594SOL     OW 2405   2.002   3.121   1.074
  594SOL    HW2 2406   1.927   3.169   1.109
  594SOL    HW3 2407   2.003   3.141   0.981
  594SOL    MW4 2408   1.992   3.130   1.066
  595SOL     OW 2409   1.775   3.253   1.172
  595SOL    HW2 2410   1.772   3.258   1.267
  595SOL    HW3 2411   1.771   3.344   1.142
  595SOL    MW4 2412   1.774   3.265   1.180
  596SOL     OW 2413   1.798   3.526   1.096
  596SOL    HW2 2414   1.875   3.532   1.153
  596SOL    HW3 2415   1.728   3.567   1.145
  596SOL    MW4 2416   1.799   3.532   1.110
  597SOL     OW 2417   2.048   3.568   1.235
  597SOL    HW2 2418   2.049   3.584   1.329
  597SOL    HW3 2419   2.139   3.551   1.212
  597SOL    MW4 2420   2.060   3.568   1.244
  598SOL     OW 2421   2.051   3.827   1.104
  598SOL    HW2 2422   1.987   3.878   1.154
  598SOL    HW3 2423   2.057   3.743   1.151
  598SOL    MW4 2424   2.044   3.823   1.117
  599SOL     OW 2425   1.861   3.967   1.219
  599SOL    HW2 2426   1.840   3.980   1.312
  599SOL    HW3 2427   1.776   3.961   1.176
  599SOL    MW4 2428   1.847   3.968   1.226
  600SOL     OW 2429   1.847   4.220   1.099
  600SOL    HW2 2430   1.871   4.131   1.126
  600SOL    HW3 2431   1.763   4.236   1.142
  600SOL    MW4 2432   1.839   4.210   1.109
  601SOL     OW 2433   2.052   4.400   1.206
  601SOL    HW2 2434   2.049   4.401   1.302
  601SOL    HW3 2435   1.985   4.337   1.181
  601SOL    MW4 2436   2.043   4.392   1.215
  602SOL     OW 2437   2.481   4.658   1.066
  602SOL    HW2 2438   2.550   4.712   1.106
  602SOL    HW3 2439   2.399   4.698   1.096
  602SOL    MW4 2440   2.479   4.671   1.075
  603SOL     OW 2441   2.241   0.098   1.171
  603SOL    HW2 2442   2.227   0.191   1.152
  603SOL    HW3 2443   2.161   0.055   1.141
  603SOL    MW4 2444   2.229   0.105   1.164
  604SOL     OW 2445   2.249   0.371   1.100
  604SOL    HW2 2446   2.157   0.395   1.116
  604SOL    HW3 2447   2.259   0.376   1.005
  604SOL    MW4 2448   2.238   0.375   1.090
  605SOL     OW 2449   2.445   0.519   1.187
  605SOL    HW2 2450   2.450   0.499   1.280
  605SOL    HW3 2451   2.380   0.458   1.152
  605SOL    MW4 2452   2.437   0.508   1.195
  606SOL     OW 2453   2.475   0.750   1.079
  606SOL    HW2 2454   2.456   0.665   1.118
  606SOL    HW3 2455   2.458   0.737   0.985
  606SOL    MW4 2456   2.470   0.737   1.072
  607SOL     OW 2457   2.275   0.855   1.236
  607SOL    HW2 2458   2.337   0.819   1.173
  607SOL    HW3 2459   2.189   0.828   1.203
  607SOL    MW4 2460   2.272   0.847   1.223
  608SOL     OW 2461   2.231   1.142   1.135
  608SOL    HW2 2462   2.299   1.193   1.178
  608SOL    HW3 2463   2.252   1.051   1.156
  608SOL    MW4 2464   2.243   1.137   1.143
  609SOL     OW 2465   2.438   1.267   1.260
  609SOL    HW2 2466   2.494   1.201   1.219
  609SOL    HW3 2467   2.470   1.350   1.225
  609SOL    MW4 2468   2.450   1.269   1.250
  610SOL     OW 2469   2.484   1.513   1.154
  610SOL    HW2 2470   2.401   1.558   1.172
  610SOL    HW3 2471   2.500   1.529   1.061
  610SOL    MW4 2472   2.475   1.521   1.144
  611SOL     OW 2473   2.268   1.674   1.184
  611SOL    HW2 2474   2.276   1.757   1.138
  611SOL    HW3 2475   2.183   1.639   1.157
  611SOL    MW4 2476   2.258   1.680   1.174
  612SOL     OW 2477   2.246   1.944   1.075
  612SOL    HW2 2478   2.171   1.983   1.120
  612SOL    HW3 2479   2.218   1.938   0.984
  612SOL    MW4 2480   2.232   1.948   1.069
  613SOL     OW 2481   2.475   2.050   1.179
  613SOL    HW2 2482   2.556   2.012   1.143
  613SOL    HW3 2483   2.405   2.001   1.136
  613SOL    MW4 2484   2.477   2.038   1.169
  614SOL     OW 2485   2.456   2.321   1.152
  614SOL    HW2 2486   2.440   2.230   1.177
  614SOL    HW3 2487   2.451   2.320   1.056
  614SOL    MW4 2488   2.454   2.309   1.142
  615SOL     OW 2489   2.225   2.472   1.189
  615SOL    HW2 2490   2.215   2.458   1.283
  615SOL    HW3 2491   2.314   2.440   1.170
  615SOL    MW4 2492   2.236   2.466   1.199
  616SOL     OW 2493   2.211   2.712   1.043
  616SOL    HW2 2494   2.206   2.625   1.083
  616SOL    HW3 2495   2.149   2.765   1.092
  616SOL    MW4 2496   2.202   2.708   1.055
  617SOL     OW 2497   2.440   2.818   1.180
  617SOL    HW2 2498   2.429   2.797   1.273
  617SOL    HW3 2499   2.364   2.778   1.137
  617SOL    MW4 2500   2.429   2.810   1.187
  618SOL     OW 2501   2.480   3.096   1.088
  618SOL    HW2 2502   2.400   3.144   1.111
  618SOL    HW3 2503   2.465   3.008   1.122
  618SOL    MW4 2504   2.467   3.091   1.096
  619SOL     OW 2505   2.245   3.225   1.167
  619SOL    HW2 2506   2.253   3.320   1.162
  619SOL    HW3 2507   2.157   3.207   1.134
  619SOL    MW4 2508   2.234   3.235   1.162
  620SOL     OW 2509   2.277   3.495   1.107
  620SOL    HW2 2510   2.353   3.552   1.120
  620SOL    HW3 2511   2.273   3.482   1.012
  620SOL    MW4 2512   2.287   3.501   1.096
  621SOL     OW 2513   2.517   3.625   1.201
  621SOL    HW2 2514   2.510   3.610   1.296
  621SOL    HW3 2515   2.509   3.720   1.191
  621SOL    MW4 2516   2.515   3.635   1.212
  622SOL     OW 2517   2.513   3.883   1.083
  622SOL    HW2 2518   2.426   3.899   1.120
  622SOL    HW3 2519   2.496   3.854   0.994
  622SOL    MW4 2520   2.499   3.881   1.076
  623SOL     OW 2521   2.270   3.970   1.213
  623SOL    HW2 2522   2.278   4.054   1.167
  623SOL    HW3 2523   2.194   3.928   1.175
  623SOL    MW4 2524   2.261   3.976   1.202
  624SOL     OW 2525   2.261   4.263   1.093
  624SOL    HW2 2526   2.189   4.309   1.136
  624SOL    HW3 2527   2.240   4.268   1.000
  624SOL    MW4 2528   2.249   4.270   1.086
  625SOL     OW 2529   2.509   4.400   1.195
  625SOL    HW2 2530   2.429   4.356   1.166
  625SOL    HW3 2531   2.499   4.490   1.166
  625SOL    MW4 2532   2.497   4.406   1.188
  626SOL     OW 2533   2.910   0.004   1.123
  626SOL    HW2 2534   2.922  -0.086   1.155
  626SOL    HW3 2535   2.929  -0.002   1.029
  626SOL    MW4 2536   2.914  -0.009   1.115
  627SOL     OW 2537   2.679   0.115   1.192
  627SOL    HW2 2538   2.684   0.110   1.288
  627SOL    HW3 2539   2.765   0.084   1.163
  627SOL    MW4 2540   2.691   0.110   1.201
  628SOL     OW 2541   2.671   0.380   1.092
  628SOL    HW2 2542   2.665   0.303   1.147
  628SOL    HW3 2543   2.613   0.444   1.133
  628SOL    MW4 2544   2.663   0.379   1.104
  629SOL     OW 2545   2.918   0.487   1.193
  629SOL    HW2 2546   2.907   0.579   1.171
  629SOL    HW3 2547   2.837   0.445   1.164
  629SOL    MW4 2548   2.906   0.494   1.186
  630SOL     OW 2549   2.926   0.756   1.087
  630SOL    HW2 2550   3.006   0.787   1.130
  630SOL    HW3 2551   2.856   0.807   1.128
  630SOL    MW4 2552   2.927   0.767   1.098
  631SOL     OW 2553   2.695   0.885   1.188
  631SOL    HW2 2554   2.689   0.980   1.180
  631SOL    HW3 2555   2.612   0.852   1.155
  631SOL    MW4 2556   2.684   0.894   1.183
  632SOL     OW 2557   2.669   1.154   1.152
  632SOL    HW2 2558   2.753   1.179   1.191
  632SOL    HW3 2559   2.687   1.148   1.058
  632SOL    MW4 2560   2.682   1.156   1.145
  633SOL     OW 2561   2.930   1.262   1.218
  633SOL    HW2 2562   2.924   1.272   1.313
  633SOL    HW3 2563   2.914   1.350   1.184
  633SOL    MW4 2564   2.927   1.275   1.226
  634SOL     OW 2565   2.907   1.512   1.127
  634SOL    HW2 2566   2.996   1.544   1.142
  634SOL    HW3 2567   2.893   1.525   1.033
  634SOL    MW4 2568   2.917   1.518   1.116
  635SOL     OW 2569   2.696   1.661   1.235
  635SOL    HW2 2570   2.772   1.609   1.210
  635SOL    HW3 2571   2.621   1.615   1.198
  635SOL    MW4 2572   2.696   1.648   1.227
  636SOL     OW 2573   2.696   1.916   1.101
  636SOL    HW2 2574   2.774   1.964   1.130
  636SOL    HW3 2575   2.702   1.832   1.146
  636SOL    MW4 2576   2.707   1.911   1.111
  637SOL     OW 2577   2.917   2.065   1.200
  637SOL    HW2 2578   2.911   2.046   1.294
  637SOL    HW3 2579   2.901   2.159   1.193
  637SOL    MW4 2580   2.914   2.075   1.212
  638SOL     OW 2581   2.887   2.326   1.100
  638SOL    HW2 2582   2.965   2.372   1.131
  638SOL    HW3 2583   2.814   2.374   1.137
  638SOL    MW4 2584   2.888   2.338   1.109
  639SOL     OW 2585   2.675   2.475   1.211
  639SOL    HW2 2586   2.674   2.470   1.307
  639SOL    HW3 2587   2.600   2.422   1.184
  639SOL    MW4 2588   2.665   2.467   1.220
  640SOL     OW 2589   2.673   2.723   1.112
  640SOL    HW2 2590   2.674   2.628   1.126
  640SOL    HW3 2591   2.583   2.749   1.134
  640SOL    MW4 2592   2.661   2.714   1.117
  641SOL     OW 2593   2.929   2.826   1.207
  641SOL    HW2 2594   2.901   2.814   1.298
  641SOL    HW3 2595   2.849   2.818   1.156
  641SOL    MW4 2596   2.915   2.824   1.212
  642SOL     OW 2597   2.943   3.093   1.152
  642SOL    HW2 2598   2.921   3.007   1.190
  642SOL    HW3 2599   2.926   3.082   1.058
  642SOL    MW4 2600   2.938   3.080   1.145
  643SOL     OW 2601   2.707   3.198   1.227
  643SOL    HW2 2602   2.791   3.159   1.205
  643SOL    HW3 2603   2.644   3.156   1.168
  643SOL    MW4 2604   2.710   3.188   1.216
  644SOL     OW 2605   2.734   3.461   1.148
  644SOL    HW2 2606   2.726   3.372   1.184
  644SOL    HW3 2607   2.646   3.498   1.157
  644SOL    MW4 2608   2.721   3.454   1.154
  645SOL     OW 2609   2.947   3.629   1.238
  645SOL    HW2 2610   3.021   3.580   1.203
  645SOL    HW3 2611   2.870   3.579   1.209
  645SOL    MW4 2612   2.946   3.616   1.229
  646SOL     OW 2613   2.954   3.890   1.158
  646SOL    HW2 2614   3.036   3.923   1.195
  646SOL    HW3 2615   2.940   3.806   1.201
  646SOL    MW4 2616   2.963   3.883   1.168
  647SOL     OW 2617   2.715   4.028   1.197
  647SOL    HW2 2618   2.791   3.972   1.179
  647SOL    HW3 2619   2.643   3.986   1.150
  647SOL    MW4 2620   2.716   4.015   1.188
  648SOL     OW 2621   2.744   4.284   1.098
  648SOL    HW2 2622   2.733   4.196   1.133
  648SOL    HW3 2623   2.673   4.334   1.137
  648SOL    MW4 2624   2.733   4.279   1.107
  649SOL     OW 2625   2.955   4.396   1.227
  649SOL    HW2 2626   3.039   4.369   1.189
  649SOL    HW3 2627   2.891   4.336   1.188
  649SOL    MW4 2628   2.958   4.384   1.217
  650SOL     OW 2629   3.396   0.006   1.080
  650SOL    HW2 2630   3.473   0.053   1.111
  650SOL    HW3 2631   3.322   0.051   1.122
  650SOL    MW4 2632   3.396   0.018   1.089
  651SOL     OW 2633   3.156   0.109   1.209
  651SOL    HW2 2634   3.148   0.101   1.304
  651SOL    HW3 2635   3.075   0.071   1.175
  651SOL    MW4 2636   3.144   0.103   1.217
  652SOL     OW 2637   3.158   0.367   1.139
  652SOL    HW2 2638   3.156   0.282   1.184
  652SOL    HW3 2639   3.074   0.407   1.161
  652SOL    MW4 2640   3.147   0.361   1.148
  653SOL     OW 2641   3.403   0.482   1.231
  653SOL    HW2 2642   3.389   0.573   1.204
  653SOL    HW3 2643   3.319   0.439   1.215
  653SOL    MW4 2644   3.390   0.489   1.225
  654SOL     OW 2645   3.376   0.741   1.161
  654SOL    HW2 2646   3.295   0.783   1.191
  654SOL    HW3 2647   3.372   0.747   1.066
  654SOL    MW4 2648   3.365   0.747   1.152
  655SOL     OW 2649   3.144   0.875   1.211
  655SOL    HW2 2650   3.140   0.889   1.306
  655SOL    HW3 2651   3.145   0.963   1.174
  655SOL    MW4 2652   3.144   0.889   1.219
  656SOL     OW 2653   3.133   1.123   1.092
  656SOL    HW2 2654   3.212   1.165   1.127
  656SOL    HW3 2655   3.061   1.166   1.137
  656SOL    MW4 2656   3.134   1.134   1.103
  657SOL     OW 2657   3.351   1.268   1.217
  657SOL    HW2 2658   3.366   1.280   1.311
  657SOL    HW3 2659   3.350   1.357   1.182
  657SOL    MW4 2660   3.353   1.282   1.225
  658SOL     OW 2661   3.340   1.530   1.124
  658SOL    HW2 2662   3.423   1.569   1.151
  658SOL    HW3 2663   3.274   1.595   1.149
  658SOL    MW4 2664   3.343   1.544   1.131
  659SOL     OW 2665   3.120   1.683   1.192
  659SOL    HW2 2666   3.108   1.686   1.287
  659SOL    HW3 2667   3.144   1.773   1.169
  659SOL    MW4 2668   3.122   1.696   1.202
  660SOL     OW 2669   3.146   1.948   1.079
  660SOL    HW2 2670   3.225   1.986   1.118
  660SOL    HW3 2671   3.074   1.988   1.127
  660SOL    MW4 2672   3.147   1.958   1.090
  661SOL     OW 2673   3.367   2.043   1.232
  661SOL    HW2 2674   3.448   2.009   1.193
  661SOL    HW3 2675   3.369   2.137   1.214
  661SOL    MW4 2676   3.378   2.051   1.224
  662SOL     OW 2677   3.342   2.298   1.109
  662SOL    HW2 2678   3.416   2.355   1.130
  662SOL    HW3 2679   3.265   2.354   1.117
  662SOL    MW4 2680   3.342   2.313   1.113
  663SOL     OW 2681   3.118   2.445   1.165
  663SOL    HW2 2682   3.134   2.440   1.260
  663SOL    HW3 2683   3.128   2.538   1.144
  663SOL    MW4 2684   3.122   2.457   1.175
  664SOL     OW 2685   3.154   2.717   1.071
  664SOL    HW2 2686   3.076   2.758   1.110
  664SOL    HW3 2687   3.131   2.705   0.979
  664SOL    MW4 2688   3.140   2.721   1.064
  665SOL     OW 2689   3.410   2.797   1.180
  665SOL    HW2 2690   3.418   2.886   1.146
  665SOL    HW3 2691   3.323   2.768   1.151
  665SOL    MW4 2692   3.400   2.805   1.172
  666SOL     OW 2693   3.422   3.073   1.116
  666SOL    HW2 2694   3.495   3.116   1.160
  666SOL    HW3 2695   3.344   3.107   1.160
  666SOL    MW4 2696   3.421   3.083   1.128
  667SOL     OW 2697   3.195   3.193   1.229
  667SOL    HW2 2698   3.190   3.284   1.201
  667SOL    HW3 2699   3.105   3.161   1.224
  667SOL    MW4 2700   3.182   3.201   1.225
  668SOL     OW 2701   3.163   3.470   1.157
  668SOL    HW2 2702   3.241   3.525   1.168
  668SOL    HW3 2703   3.166   3.444   1.065
  668SOL    MW4 2704   3.174   3.474   1.146
  669SOL     OW 2705   3.392   3.614   1.238
  669SOL    HW2 2706   3.396   3.620   1.334
  669SOL    HW3 2707   3.453   3.543   1.216
  669SOL    MW4 2708   3.400   3.605   1.248
  670SOL     OW 2709   3.418   3.870   1.097
  670SOL    HW2 2710   3.335   3.917   1.107
  670SOL    HW3 2711   3.407   3.792   1.152
  670SOL    MW4 2712   3.405   3.866   1.106
  671SOL     OW 2713   3.188   4.024   1.222
  671SOL    HW2 2714   3.167   4.030   1.316
  671SOL    HW3 2715   3.179   4.114   1.190
  671SOL    MW4 2716   3.184   4.037   1.231
  672SOL     OW 2717   3.172   4.273   1.115
  672SOL    HW2 2718   3.248   4.315   1.154
  672SOL    HW3 2719   3.181   4.289   1.021
  672SOL    MW4 2720   3.183   4.281   1.108
  673SOL     OW 2721   3.370   4.435   1.221
  673SOL    HW2 2722   3.450   4.389   1.194
  673SOL    HW3 2723   3.376   4.520   1.177
  673SOL    MW4 2724   3.382   4.440   1.211
  674SOL     OW 2725   3.798   0.037   1.139
  674SOL    HW2 2726   3.802  -0.054   1.169
  674SOL    HW3 2727   3.775   0.031   1.046
  674SOL    MW4 2728   3.796   0.024   1.131
  675SOL     OW 2729   3.554   0.180   1.233
  675SOL    HW2 2730   3.565   0.268   1.197
  675SOL    HW3 2731   3.629   0.130   1.198
  675SOL    MW4 2732   3.566   0.185   1.223
  676SOL     OW 2733   3.612   0.435   1.057
  676SOL    HW2 2734   3.676   0.447   1.127
  676SOL    HW3 2735   3.527   0.438   1.102
  676SOL    MW4 2736   3.609   0.437   1.072
  677SOL     OW 2737   3.796   0.478   1.254
  677SOL    HW2 2738   3.876   0.434   1.224
  677SOL    HW3 2739   3.807   0.569   1.226
  677SOL    MW4 2740   3.808   0.484   1.246
  678SOL     OW 2741   3.807   0.739   1.135
  678SOL    HW2 2742   3.889   0.782   1.159
  678SOL    HW3 2743   3.739   0.792   1.176
  678SOL    MW4 2744   3.809   0.751   1.144
  679SOL     OW 2745   3.606   0.895   1.234
  679SOL    HW2 2746   3.592   0.981   1.194
  679SOL    HW3 2747   3.523   0.849   1.222
  679SOL    MW4 2748   3.593   0.900   1.227
  680SOL     OW 2749   3.565   1.145   1.107
  680SOL    HW2 2750   3.644   1.186   1.142
  680SOL    HW3 2751   3.495   1.205   1.130
  680SOL    MW4 2752   3.566   1.158   1.115
  681SOL     OW 2753   3.763   1.266   1.228
  681SOL    HW2 2754   3.777   1.280   1.322
  681SOL    HW3 2755   3.755   1.355   1.192
  681SOL    MW4 2756   3.764   1.280   1.236
  682SOL     OW 2757   3.811   1.514   1.117
  682SOL    HW2 2758   3.888   1.556   1.154
  682SOL    HW3 2759   3.823   1.521   1.022
  682SOL    MW4 2760   3.822   1.520   1.109
  683SOL     OW 2761   3.585   1.646   1.194
  683SOL    HW2 2762   3.596   1.738   1.171
  683SOL    HW3 2763   3.668   1.605   1.167
  683SOL    MW4 2764   3.598   1.652   1.187
  684SOL     OW 2765   3.592   1.921   1.122
  684SOL    HW2 2766   3.679   1.949   1.150
  684SOL    HW3 2767   3.592   1.935   1.027
  684SOL    MW4 2768   3.604   1.926   1.113
  685SOL     OW 2769   3.833   2.044   1.169
  685SOL    HW2 2770   3.829   2.057   1.264
  685SOL    HW3 2771   3.912   1.992   1.155
  685SOL    MW4 2772   3.843   2.039   1.179
  686SOL     OW 2773   3.814   2.305   1.068
  686SOL    HW2 2774   3.892   2.333   1.116
  686SOL    HW3 2775   3.811   2.210   1.081
  686SOL    MW4 2776   3.824   2.296   1.076
  687SOL     OW 2777   3.581   2.419   1.195
  687SOL    HW2 2778   3.575   2.428   1.290
  687SOL    HW3 2779   3.660   2.368   1.180
  687SOL    MW4 2780   3.591   2.414   1.205
  688SOL     OW 2781   3.644   2.667   1.111
  688SOL    HW2 2782   3.645   2.574   1.134
  688SOL    HW3 2783   3.556   2.696   1.135
  688SOL    MW4 2784   3.632   2.658   1.117
  689SOL     OW 2785   3.855   2.827   1.213
  689SOL    HW2 2786   3.846   2.823   1.308
  689SOL    HW3 2787   3.773   2.792   1.179
  689SOL    MW4 2788   3.843   2.822   1.221
  690SOL     OW 2789   3.880   3.088   1.126
  690SOL    HW2 2790   3.871   3.001   1.165
  690SOL    HW3 2791   3.835   3.081   1.042
  690SOL    MW4 2792   3.873   3.075   1.120
  691SOL     OW 2793   3.634   3.199   1.232
  691SOL    HW2 2794   3.631   3.291   1.206
  691SOL    HW3 2795   3.718   3.168   1.200
  691SOL    MW4 2796   3.644   3.207   1.224
  692SOL     OW 2797   3.633   3.457   1.139
  692SOL    HW2 2798   3.702   3.500   1.189
  692SOL    HW3 2799   3.658   3.471   1.048
  692SOL    MW4 2800   3.645   3.465   1.134
  693SOL     OW 2801   3.859   3.599   1.263
  693SOL    HW2 2802   3.862   3.597   1.359
  693SOL    HW3 2803   3.852   3.692   1.242
  693SOL    MW4 2804   3.858   3.611   1.273
  694SOL     OW 2805   3.823   3.844   1.120
  694SOL    HW2 2806   3.756   3.911   1.137
  694SOL    HW3 2807   3.796   3.805   1.036
  694SOL    MW4 2808   3.810   3.848   1.111
  695SOL     OW 2809   3.620   4.038   1.202
  695SOL    HW2 2810   3.645   4.012   1.290
  695SOL    HW3 2811   3.544   3.985   1.182
  695SOL    MW4 2812   3.614   4.028   1.211
  696SOL     OW 2813   3.578   4.301   1.128
  696SOL    HW2 2814   3.595   4.218   1.172
  696SOL    HW3 2815   3.576   4.279   1.035
  696SOL    MW4 2816   3.580   4.287   1.122
  697SOL     OW 2817   3.835   4.423   1.198
  697SOL    HW2 2818   3.848   4.407   1.292
  697SOL    HW3 2819   3.751   4.383   1.178
  697SOL    MW4 2820   3.826   4.415   1.208
  698SOL     OW 2821   4.267   0.012   1.087
  698SOL    HW2 2822   4.260  -0.078   1.120
  698SOL    HW3 2823   4.198   0.059   1.133
  698SOL    MW4 2824   4.257   0.006   1.097
  699SOL     OW 2825   4.053   0.128   1.242
  699SOL    HW2 2826   4.043   0.144   1.336
  699SOL    HW3 2827   3.969   0.092   1.215
  699SOL    MW4 2828   4.041   0.125   1.251
  700SOL     OW 2829   4.028   0.379   1.138
  700SOL    HW2 2830   4.048   0.289   1.162
  700SOL    HW3 2831   4.034   0.381   1.042
  700SOL    MW4 2832   4.031   0.368   1.129
  701SOL     OW 2833   4.274   0.477   1.219
  701SOL    HW2 2834   4.276   0.481   1.315
  701SOL    HW3 2835   4.187   0.444   1.197
  701SOL    MW4 2836   4.263   0.473   1.229
  702SOL     OW 2837   4.246   0.753   1.129
  702SOL    HW2 2838   4.244   0.660   1.149
  702SOL    HW3 2839   4.255   0.757   1.034
  702SOL    MW4 2840   4.247   0.741   1.119
  703SOL     OW 2841   4.025   0.895   1.227
  703SOL    HW2 2842   4.019   0.892   1.323
  703SOL    HW3 2843   4.103   0.845   1.206
  703SOL    MW4 2844   4.034   0.888   1.237
  704SOL     OW 2845   3.997   1.147   1.144
  704SOL    HW2 2846   3.999   1.059   1.183
  704SOL    HW3 2847   3.912   1.183   1.170
  704SOL    MW4 2848   3.986   1.140   1.152
  705SOL     OW 2849   4.210   1.292   1.242
  705SOL    HW2 2850   4.223   1.288   1.337
  705SOL    HW3 2851   4.133   1.239   1.226
  705SOL    MW4 2852   4.202   1.285   1.252
  706SOL     OW 2853   4.306   1.530   1.143
  706SOL    HW2 2854   4.290   1.441   1.174
  706SOL    HW3 2855   4.380   1.560   1.196
  706SOL    MW4 2856   4.314   1.522   1.154
  707SOL     OW 2857   4.042   1.686   1.221
  707SOL    HW2 2858   4.015   1.681   1.313
  707SOL    HW3 2859   4.117   1.627   1.214
  707SOL    MW4 2860   4.048   1.677   1.232
  708SOL     OW 2861   4.054   1.921   1.077
  708SOL    HW2 2862   4.060   1.834   1.116
  708SOL    HW3 2863   4.024   1.906   0.987
  708SOL    MW4 2864   4.051   1.907   1.070
  709SOL     OW 2865   4.276   2.058   1.189
  709SOL    HW2 2866   4.264   2.149   1.162
  709SOL    HW3 2867   4.203   2.011   1.148
  709SOL    MW4 2868   4.265   2.063   1.180
  710SOL     OW 2869   4.235   2.303   1.095
  710SOL    HW2 2870   4.149   2.327   1.131
  710SOL    HW3 2871   4.220   2.294   1.001
  710SOL    MW4 2872   4.221   2.305   1.088
  711SOL     OW 2873   4.024   2.422   1.220
  711SOL    HW2 2874   4.029   2.428   1.315
  711SOL    HW3 2875   4.061   2.504   1.189
  711SOL    MW4 2876   4.030   2.433   1.228
  712SOL     OW 2877   4.081   2.666   1.110
  712SOL    HW2 2878   4.005   2.719   1.134
  712SOL    HW3 2879   4.082   2.668   1.014
  712SOL    MW4 2880   4.071   2.673   1.101
  713SOL     OW 2881   4.283   2.831   1.210
  713SOL    HW2 2882   4.285   2.914   1.163
  713SOL    HW3 2883   4.205   2.787   1.177
  713SOL    MW4 2884   4.273   2.836   1.200
  714SOL     OW 2885   4.299   3.075   1.098
  714SOL    HW2 2886   4.229   3.124   1.142
  714SOL    HW3 2887   4.291   3.100   1.006
  714SOL    MW4 2888   4.288   3.085   1.092
  715SOL     OW 2889   4.089   3.222   1.223
  715SOL    HW2 2890   4.069   3.227   1.317
  715SOL    HW3 2891   4.016   3.174   1.185
  715SOL    MW4 2892   4.077   3.216   1.230
  716SOL     OW 2893   4.070   3.486   1.132
  716SOL    HW2 2894   4.065   3.397   1.167
  716SOL    HW3 2895   3.990   3.528   1.162
  716SOL    MW4 2896   4.059   3.480   1.141
  717SOL     OW 2897   4.291   3.630   1.218
  717SOL    HW2 2898   4.221   3.572   1.189
  717SOL    HW3 2899   4.372   3.582   1.199
  717SOL    MW4 2900   4.293   3.616   1.212
  718SOL     OW 2901   4.247   3.900   1.116
  718SOL    HW2 2902   4.166   3.934   1.154
  718SOL    HW3 2903   4.270   3.824   1.170
  718SOL    MW4 2904   4.239   3.894   1.128
  719SOL     OW 2905   4.024   4.004   1.228
  719SOL    HW2 2906   4.021   4.093   1.191
  719SOL    HW3 2907   3.961   3.954   1.176
  719SOL    MW4 2908   4.015   4.009   1.216
  720SOL     OW 2909   4.050   4.256   1.102
  720SOL    HW2 2910   3.975   4.306   1.135
  720SOL    HW3 2911   4.049   4.270   1.008
  720SOL    MW4 2912   4.040   4.264   1.094
  721SOL     OW 2913   4.251   4.413   1.200
  721SOL    HW2 2914   4.177   4.358   1.174
  721SOL    HW3 2915   4.328   4.366   1.169
  721SOL    MW4 2916   4.251   4.400   1.193
  722SOL     OW 2917   0.253   0.065   1.583
  722SOL    HW2 2918   0.317   0.094   1.518
  722SOL    HW3 2919   0.170   0.103   1.553
  722SOL    MW4 2920   0.250   0.074   1.571
  723SOL     OW 2921   4.479   0.137   1.501
  723SOL    HW2 2922   4.403   0.088   1.533
  723SOL    HW3 2923   4.469   0.137   1.406
  723SOL    MW4 2924   4.467   0.130   1.493
  724SOL     OW 2925   0.022   0.400   1.603
  724SOL    HW2 2926   0.016   0.377   1.696
  724SOL    HW3 2927   0.014   0.317   1.557
  724SOL    MW4 2928   0.020   0.386   1.609
  725SOL     OW 2929   0.217   0.558   1.501
  725SOL    HW2 2930   0.147   0.498   1.526
  725SOL    HW3 2931   0.219   0.555   1.406
  725SOL    MW4 2932   0.208   0.550   1.492
  726SOL     OW 2933   0.230   0.816   1.598
  726SOL    HW2 2934   0.307   0.852   1.553
  726SOL    HW3 2935   0.237   0.722   1.584
  726SOL    MW4 2936   0.241   0.809   1.590
  727SOL     OW 2937   4.478   0.905   1.487
  727SOL    HW2 2938   4.479   0.992   1.527
  727SOL    HW3 2939   4.559   0.864   1.517
  727SOL    MW4 2940   4.488   0.911   1.496
  728SOL     OW 2941   0.015   1.151   1.592
  728SOL    HW2 2942   0.022   1.150   1.687
  728SOL    HW3 2943   0.084   1.210   1.563
  728SOL    MW4 2944   0.025   1.159   1.601
  729SOL     OW 2945   0.242   1.278   1.497
  729SOL    HW2 2946   0.259   1.366   1.529
  729SOL    HW3 2947   0.226   1.289   1.403
  729SOL    MW4 2948   0.242   1.291   1.489
  730SOL     OW 2949   0.279   1.543   1.592
  730SOL    HW2 2950   0.277   1.535   1.687
  730SOL    HW3 2951   0.194   1.582   1.569
  730SOL    MW4 2952   0.267   1.547   1.601
  731SOL     OW 2953   0.011   1.659   1.531
  731SOL    HW2 2954   0.015   1.751   1.556
  731SOL    HW3 2955  -0.009   1.660   1.438
  731SOL    MW4 2956   0.009   1.671   1.522
  732SOL     OW 2957   0.024   1.931   1.602
  732SOL    HW2 2958  -0.003   1.935   1.694
  732SOL    HW3 2959  -0.049   1.971   1.554
  732SOL    MW4 2960   0.011   1.937   1.608
  733SOL     OW 2961   0.238   2.066   1.491
  733SOL    HW2 2962   0.162   2.020   1.527
  733SOL    HW3 2963   0.232   2.051   1.397
  733SOL    MW4 2964   0.227   2.058   1.483
  734SOL     OW 2965   0.238   2.333   1.590
  734SOL    HW2 2966   0.233   2.311   1.683
  734SOL    HW3 2967   0.241   2.248   1.545
  734SOL    MW4 2968   0.238   2.319   1.596
  735SOL     OW 2969   0.000   2.466   1.506
  735SOL    HW2 2970  -0.069   2.401   1.522
  735SOL    HW3 2971   0.081   2.419   1.526
  735SOL    MW4 2972   0.002   2.451   1.511
  736SOL     OW 2973   0.004   2.730   1.567
  736SOL    HW2 2974  -0.081   2.767   1.543
  736SOL    HW3 2975  -0.001   2.639   1.536
  736SOL    MW4 2976  -0.008   2.723   1.560
  737SOL     OW 2977   0.247   2.811   1.477
  737SOL    HW2 2978   0.323   2.785   1.531
  737SOL    HW3 2979   0.172   2.771   1.521
  737SOL    MW4 2980   0.247   2.802   1.490
  738SOL     OW 2981   0.215   3.069   1.591
  738SOL    HW2 2982   0.135   3.110   1.559
  738SOL    HW3 2983   0.219   2.985   1.545
  738SOL    MW4 2984   0.205   3.063   1.580
  739SOL     OW 2985   4.486   3.202   1.491
  739SOL    HW2 2986   4.489   3.288   1.533
  739SOL    HW3 2987   4.505   3.220   1.399
  739SOL    MW4 2988   4.489   3.216   1.485
  740SOL     OW 2989   4.474   3.463   1.603
  740SOL    HW2 2990   4.463   3.473   1.698
  740SOL    HW3 2991   4.397   3.504   1.565
  740SOL    MW4 2992   4.463   3.469   1.611
  741SOL     OW 2993   0.207   3.608   1.536
  741SOL    HW2 2994   0.199   3.698   1.567
  741SOL    HW3 2995   0.129   3.564   1.570
  741SOL    MW4 2996   0.196   3.614   1.544
  742SOL     OW 2997   0.189   3.888   1.604
  742SOL    HW2 2998   0.184   3.878   1.699
  742SOL    HW3 2999   0.275   3.926   1.588
  742SOL    MW4 3000   0.200   3.891   1.614
  743SOL     OW 3001   4.490   4.038   1.469
  743SOL    HW2 3002   4.490   4.130   1.496
  743SOL    HW3 3003   4.564   3.999   1.515
  743SOL    MW4 3004   4.500   4.045   1.479
  744SOL     OW 3005   0.038   4.291   1.576
  744SOL    HW2 3006   0.025   4.261   1.666
  744SOL    HW3 3007  -0.042   4.341   1.556
  744SOL    MW4 3008   0.025   4.294   1.586
  745SOL     OW 3009   0.248   4.461   1.503
  745SOL    HW2 3010   0.179   4.415   1.550
  745SOL    HW3 3011   0.237   4.553   1.529
  745SOL    MW4 3012   0.237   4.467   1.513
  746SOL     OW 3013   0.684   0.022   1.572
  746SOL    HW2 3014   0.762   0.066   1.539
  746SOL    HW3 3015   0.611   0.066   1.528
  746SOL    MW4 3016   0.685   0.034   1.562
  747SOL     OW 3017   0.466   0.138   1.426
  747SOL    HW2 3018   0.455   0.230   1.451
  747SOL    HW3 3019   0.468   0.139   1.330
  747SOL    MW4 3020   0.465   0.151   1.417
  748SOL     OW 3021   0.437   0.390   1.518
  748SOL    HW2 3022   0.518   0.439   1.517
  748SOL    HW3 3023   0.368   0.456   1.508
  748SOL    MW4 3024   0.438   0.405   1.516
  749SOL     OW 3025   0.670   0.543   1.509
  749SOL    HW2 3026   0.669   0.635   1.537
  749SOL    HW3 3027   0.677   0.546   1.414
  749SOL    MW4 3028   0.671   0.556   1.500
  750SOL     OW 3029   0.651   0.802   1.596
  750SOL    HW2 3030   0.663   0.811   1.690
  750SOL    HW3 3031   0.729   0.843   1.557
  750SOL    MW4 3032   0.663   0.809   1.603
  751SOL     OW 3033   0.452   0.924   1.461
  751SOL    HW2 3034   0.470   1.011   1.497
  751SOL    HW3 3035   0.506   0.865   1.513
  751SOL    MW4 3036   0.461   0.928   1.473
  752SOL     OW 3037   0.465   1.157   1.609
  752SOL    HW2 3038   0.538   1.196   1.560
  752SOL    HW3 3039   0.387   1.195   1.569
  752SOL    MW4 3040   0.464   1.167   1.597
  753SOL     OW 3041   0.679   1.273   1.467
  753SOL    HW2 3042   0.696   1.363   1.496
  753SOL    HW3 3043   0.658   1.282   1.374
  753SOL    MW4 3044   0.678   1.286   1.458
  754SOL     OW 3045   0.705   1.531   1.593
  754SOL    HW2 3046   0.780   1.577   1.554
  754SOL    HW3 3047   0.631   1.590   1.579
  754SOL    MW4 3048   0.705   1.545   1.586
  755SOL     OW 3049   0.490   1.694   1.517
  755SOL    HW2 3050   0.486   1.776   1.566
  755SOL    HW3 3051   0.412   1.646   1.546
  755SOL    MW4 3052   0.479   1.698   1.527
  756SOL     OW 3053   0.476   1.969   1.629
  756SOL    HW2 3054   0.469   1.977   1.724
  756SOL    HW3 3055   0.388   1.992   1.597
  756SOL    MW4 3056   0.463   1.973   1.637
  757SOL     OW 3057   0.722   2.077   1.533
  757SOL    HW2 3058   0.797   2.032   1.571
  757SOL    HW3 3059   0.646   2.040   1.580
  757SOL    MW4 3060   0.722   2.066   1.544
  758SOL     OW 3061   0.700   2.338   1.639
  758SOL    HW2 3062   0.612   2.364   1.614
  758SOL    HW3 3063   0.714   2.255   1.593
  758SOL    MW4 3064   0.690   2.330   1.630
  759SOL     OW 3065   0.469   2.445   1.542
  759SOL    HW2 3066   0.456   2.539   1.555
  759SOL    HW3 3067   0.382   2.407   1.557
  759SOL    MW4 3068   0.455   2.453   1.546
  760SOL     OW 3069   0.447   2.722   1.632
  760SOL    HW2 3070   0.428   2.735   1.725
  760SOL    HW3 3071   0.527   2.772   1.616
  760SOL    MW4 3072   0.455   2.730   1.642
  761SOL     OW 3073   0.702   2.836   1.529
  761SOL    HW2 3074   0.678   2.925   1.558
  761SOL    HW3 3075   0.693   2.839   1.434
  761SOL    MW4 3076   0.697   2.848   1.520
  762SOL     OW 3077   0.646   3.094   1.617
  762SOL    HW2 3078   0.721   3.131   1.569
  762SOL    HW3 3079   0.569   3.133   1.574
  762SOL    MW4 3080   0.646   3.104   1.605
  763SOL     OW 3081   0.419   3.230   1.518
  763SOL    HW2 3082   0.334   3.193   1.543
  763SOL    HW3 3083   0.418   3.226   1.422
  763SOL    MW4 3084   0.407   3.224   1.509
  764SOL     OW 3085   0.452   3.485   1.658
  764SOL    HW2 3086   0.446   3.396   1.624
  764SOL    HW3 3087   0.368   3.526   1.636
  764SOL    MW4 3088   0.440   3.479   1.651
  765SOL     OW 3089   0.651   3.629   1.505
  765SOL    HW2 3090   0.736   3.595   1.534
  765SOL    HW3 3091   0.587   3.582   1.558
  765SOL    MW4 3092   0.654   3.618   1.516
  766SOL     OW 3093   0.630   3.887   1.616
  766SOL    HW2 3094   0.713   3.927   1.592
  766SOL    HW3 3095   0.636   3.798   1.582
  766SOL    MW4 3096   0.642   3.880   1.608
  767SOL     OW 3097   0.411   4.037   1.505
  767SOL    HW2 3098   0.491   3.987   1.518
  767SOL    HW3 3099   0.392   4.029   1.411
  767SOL    MW4 3100   0.419   4.030   1.494
  768SOL     OW 3101   0.441   4.307   1.610
  768SOL    HW2 3102   0.413   4.218   1.592
  768SOL    HW3 3103   0.369   4.362   1.577
  768SOL    MW4 3104   0.427   4.303   1.603
  769SOL     OW 3105   0.668   4.424   1.491
  769SOL    HW2 3106   0.596   4.378   1.532
  769SOL    HW3 3107   0.662   4.514   1.525
  769SOL    MW4 3108   0.658   4.430   1.501
  770SOL     OW 3109   1.103   0.011   1.589
  770SOL    HW2 3110   1.122   0.028   1.681
  770SOL    HW3 3111   1.182   0.037   1.543
  770SOL    MW4 3112   1.116   0.016   1.595
  771SOL     OW 3113   0.921   0.179   1.467
  771SOL    HW2 3114   0.903   0.255   1.522
  771SOL    HW3 3115   0.991   0.132   1.512
  771SOL    MW4 3116   0.928   0.182   1.480
  772SOL     OW 3117   0.895   0.403   1.628
  772SOL    HW2 3118   0.886   0.418   1.722
  772SOL    HW3 3119   0.820   0.447   1.589
  772SOL    MW4 3120   0.884   0.410   1.635
  773SOL     OW 3121   1.114   0.525   1.502
  773SOL    HW2 3122   1.101   0.614   1.537
  773SOL    HW3 3123   1.045   0.473   1.544
  773SOL    MW4 3124   1.103   0.530   1.512
  774SOL     OW 3125   1.100   0.770   1.617
  774SOL    HW2 3126   1.114   0.779   1.711
  774SOL    HW3 3127   1.177   0.809   1.577
  774SOL    MW4 3128   1.112   0.776   1.624
  775SOL     OW 3129   0.891   0.913   1.512
  775SOL    HW2 3130   0.955   0.854   1.551
  775SOL    HW3 3131   0.898   0.898   1.418
  775SOL    MW4 3132   0.900   0.903   1.505
  776SOL     OW 3133   0.894   1.177   1.606
  776SOL    HW2 3134   0.905   1.086   1.580
  776SOL    HW3 3135   0.814   1.205   1.560
  776SOL    MW4 3136   0.885   1.169   1.596
  777SOL     OW 3137   1.123   1.283   1.441
  777SOL    HW2 3138   1.184   1.234   1.496
  777SOL    HW3 3139   1.040   1.279   1.488
  777SOL    MW4 3140   1.120   1.276   1.455
  778SOL     OW 3141   1.155   1.535   1.552
  778SOL    HW2 3142   1.227   1.586   1.517
  778SOL    HW3 3143   1.160   1.451   1.507
  778SOL    MW4 3144   1.165   1.530   1.541
  779SOL     OW 3145   0.911   1.665   1.485
  779SOL    HW2 3146   1.002   1.635   1.498
  779SOL    HW3 3147   0.900   1.670   1.391
  779SOL    MW4 3148   0.922   1.662   1.475
  780SOL     OW 3149   0.913   1.896   1.648
  780SOL    HW2 3150   0.985   1.944   1.606
  780SOL    HW3 3151   0.930   1.804   1.627
  780SOL    MW4 3152   0.925   1.890   1.639
  781SOL     OW 3153   1.097   2.079   1.486
  781SOL    HW2 3154   1.171   2.036   1.529
  781SOL    HW3 3155   1.099   2.169   1.520
  781SOL    MW4 3156   1.107   2.085   1.496
  782SOL     OW 3157   1.121   2.336   1.590
  782SOL    HW2 3158   1.199   2.354   1.537
  782SOL    HW3 3159   1.057   2.400   1.560
  782SOL    MW4 3160   1.123   2.347   1.579
  783SOL     OW 3161   0.908   2.482   1.524
  783SOL    HW2 3162   0.904   2.570   1.561
  783SOL    HW3 3163   0.843   2.432   1.574
  783SOL    MW4 3164   0.899   2.487   1.536
  784SOL     OW 3165   0.948   2.728   1.635
  784SOL    HW2 3166   0.927   2.728   1.729
  784SOL    HW3 3167   0.870   2.764   1.593
  784SOL    MW4 3168   0.935   2.733   1.642
  785SOL     OW 3169   1.127   2.883   1.489
  785SOL    HW2 3170   1.105   2.968   1.527
  785SOL    HW3 3171   1.061   2.823   1.524
  785SOL    MW4 3172   1.116   2.886   1.499
  786SOL     OW 3173   1.103   3.137   1.604
  786SOL    HW2 3174   1.119   3.128   1.698
  786SOL    HW3 3175   1.183   3.178   1.569
  786SOL    MW4 3176   1.116   3.141   1.611
  787SOL     OW 3177   0.866   3.242   1.505
  787SOL    HW2 3178   0.952   3.218   1.540
  787SOL    HW3 3179   0.875   3.232   1.410
  787SOL    MW4 3180   0.879   3.238   1.497
  788SOL     OW 3181   0.868   3.480   1.630
  788SOL    HW2 3182   0.948   3.504   1.584
  788SOL    HW3 3183   0.841   3.397   1.592
  788SOL    MW4 3184   0.875   3.472   1.619
  789SOL     OW 3185   1.101   3.592   1.526
  789SOL    HW2 3186   1.182   3.561   1.566
  789SOL    HW3 3187   1.117   3.589   1.432
  789SOL    MW4 3188   1.114   3.588   1.519
  790SOL     OW 3189   1.067   3.864   1.620
  790SOL    HW2 3190   1.144   3.913   1.591
  790SOL    HW3 3191   1.082   3.775   1.586
  790SOL    MW4 3192   1.079   3.858   1.612
  791SOL     OW 3193   0.859   4.008   1.518
  791SOL    HW2 3194   0.873   4.101   1.536
  791SOL    HW3 3195   0.938   3.965   1.550
  791SOL    MW4 3196   0.871   4.015   1.525
  792SOL     OW 3197   0.883   4.280   1.592
  792SOL    HW2 3198   0.870   4.293   1.686
  792SOL    HW3 3199   0.809   4.325   1.551
  792SOL    MW4 3200   0.871   4.287   1.599
  793SOL     OW 3201   1.111   4.399   1.512
  793SOL    HW2 3202   1.026   4.358   1.529
  793SOL    HW3 3203   1.097   4.492   1.528
  793SOL    MW4 3204   1.098   4.406   1.516
  794SOL     OW 3205   1.567   4.646   1.528
  794SOL    HW2 3206   1.561   4.642   1.624
  794SOL    HW3 3207   1.486   4.689   1.501
  794SOL    MW4 3208   1.555   4.651   1.537
  795SOL     OW 3209   1.340   0.113   1.438
  795SOL    HW2 3210   1.349   0.203   1.468
  795SOL    HW3 3211   1.350   0.118   1.343
  795SOL    MW4 3212   1.342   0.125   1.430
  796SOL     OW 3213   1.352   0.387   1.528
  796SOL    HW2 3214   1.433   0.438   1.528
  796SOL    HW3 3215   1.285   0.450   1.501
  796SOL    MW4 3216   1.354   0.402   1.524
  797SOL     OW 3217   1.578   0.539   1.492
  797SOL    HW2 3218   1.651   0.485   1.521
  797SOL    HW3 3219   1.592   0.549   1.397
  797SOL    MW4 3220   1.590   0.534   1.483
  798SOL     OW 3221   1.579   0.795   1.626
  798SOL    HW2 3222   1.571   0.787   1.721
  798SOL    HW3 3223   1.582   0.704   1.595
  798SOL    MW4 3224   1.578   0.782   1.634
  799SOL     OW 3225   1.329   0.880   1.515
  799SOL    HW2 3226   1.414   0.856   1.551
  799SOL    HW3 3227   1.338   0.865   1.421
  799SOL    MW4 3228   1.341   0.875   1.508
  800SOL     OW 3229   1.305   1.132   1.601
  800SOL    HW2 3230   1.323   1.127   1.695
  800SOL    HW3 3231   1.312   1.041   1.571
  800SOL    MW4 3232   1.308   1.119   1.609
  801SOL     OW 3233   1.573   1.239   1.496
  801SOL    HW2 3234   1.489   1.204   1.525
  801SOL    HW3 3235   1.570   1.234   1.400
  801SOL    MW4 3236   1.562   1.234   1.487
  802SOL     OW 3237   1.565   1.511   1.569
  802SOL    HW2 3238   1.568   1.515   1.664
  802SOL    HW3 3239   1.560   1.418   1.549
  802SOL    MW4 3240   1.565   1.499   1.579
  803SOL     OW 3241   1.376   1.683   1.474
  803SOL    HW2 3242   1.448   1.625   1.501
  803SOL    HW3 3243   1.390   1.695   1.380
  803SOL    MW4 3244   1.388   1.677   1.465
  804SOL     OW 3245   1.322   1.934   1.584
  804SOL    HW2 3246   1.327   1.934   1.680
  804SOL    HW3 3247   1.344   1.844   1.559
  804SOL    MW4 3248   1.325   1.922   1.593
  805SOL     OW 3249   1.534   2.030   1.449
  805SOL    HW2 3250   1.441   2.015   1.464
  805SOL    HW3 3251   1.542   2.042   1.355
  805SOL    MW4 3252   1.523   2.030   1.439
  806SOL     OW 3253   1.548   2.282   1.564
  806SOL    HW2 3254   1.618   2.317   1.509
  806SOL    HW3 3255   1.528   2.196   1.526
  806SOL    MW4 3256   1.554   2.275   1.552
  807SOL     OW 3257   1.337   2.415   1.450
  807SOL    HW2 3258   1.330   2.506   1.480
  807SOL    HW3 3259   1.409   2.379   1.502
  807SOL    MW4 3260   1.346   2.422   1.461
  808SOL     OW 3261   1.342   2.696   1.554
  808SOL    HW2 3262   1.428   2.736   1.537
  808SOL    HW3 3263   1.280   2.768   1.546
  808SOL    MW4 3264   1.345   2.711   1.551
  809SOL     OW 3265   1.574   2.830   1.494
  809SOL    HW2 3266   1.639   2.777   1.539
  809SOL    HW3 3267   1.603   2.830   1.402
  809SOL    MW4 3268   1.586   2.823   1.488
  810SOL     OW 3269   1.567   3.095   1.567
  810SOL    HW2 3270   1.654   3.128   1.548
  810SOL    HW3 3271   1.567   3.006   1.532
  810SOL    MW4 3272   1.578   3.088   1.560
  811SOL     OW 3273   1.333   3.268   1.508
  811SOL    HW2 3274   1.331   3.353   1.553
  811SOL    HW3 3275   1.414   3.227   1.538
  811SOL    MW4 3276   1.343   3.274   1.518
  812SOL     OW 3277   1.344   3.513   1.632
  812SOL    HW2 3278   1.345   3.490   1.725
  812SOL    HW3 3279   1.434   3.537   1.612
  812SOL    MW4 3280   1.356   3.513   1.642
  813SOL     OW 3281   1.570   3.628   1.512
  813SOL    HW2 3282   1.561   3.719   1.540
  813SOL    HW3 3283   1.566   3.632   1.416
  813SOL    MW4 3284   1.569   3.641   1.503
  814SOL     OW 3285   1.521   3.884   1.581
  814SOL    HW2 3286   1.517   3.879   1.677
  814SOL    HW3 3287   1.436   3.919   1.555
  814SOL    MW4 3288   1.510   3.888   1.590
  815SOL     OW 3289   1.275   4.027   1.507
  815SOL    HW2 3290   1.283   4.108   1.557
  815SOL    HW3 3291   1.313   4.047   1.422
  815SOL    MW4 3292   1.281   4.041   1.503
  816SOL     OW 3293   1.343   4.287   1.621
  816SOL    HW2 3294   1.412   4.317   1.562
  816SOL    HW3 3295   1.263   4.329   1.589
  816SOL    MW4 3296   1.341   4.296   1.609
  817SOL     OW 3297   1.568   4.365   1.466
  817SOL    HW2 3298   1.640   4.326   1.515
  817SOL    HW3 3299   1.580   4.459   1.476
  817SOL    MW4 3300   1.579   4.372   1.473
  818SOL     OW 3301   1.993   4.630   1.560
  818SOL    HW2 3302   2.007   4.650   1.653
  818SOL    HW3 3303   1.921   4.687   1.534
  818SOL    MW4 3304   1.986   4.640   1.569
  819SOL     OW 3305   1.781   0.143   1.466
  819SOL    HW2 3306   1.703   0.093   1.489
  819SOL    HW3 3307   1.795   0.124   1.373
  819SOL    MW4 3308   1.773   0.134   1.457
  820SOL     OW 3309   1.793   0.394   1.584
  820SOL    HW2 3310   1.858   0.450   1.542
  820SOL    HW3 3311   1.796   0.313   1.533
  820SOL    MW4 3312   1.802   0.391   1.571
  821SOL     OW 3313   2.000   0.535   1.450
  821SOL    HW2 3314   2.067   0.477   1.487
  821SOL    HW3 3315   2.016   0.619   1.493
  821SOL    MW4 3316   2.011   0.539   1.461
  822SOL     OW 3317   2.046   0.763   1.592
  822SOL    HW2 3318   2.127   0.805   1.562
  822SOL    HW3 3319   1.977   0.822   1.562
  822SOL    MW4 3320   2.048   0.777   1.584
  823SOL     OW 3321   1.818   0.892   1.480
  823SOL    HW2 3322   1.819   0.980   1.518
  823SOL    HW3 3323   1.740   0.851   1.519
  823SOL    MW4 3324   1.808   0.898   1.490
  824SOL     OW 3325   1.811   1.149   1.632
  824SOL    HW2 3326   1.889   1.198   1.607
  824SOL    HW3 3327   1.739   1.191   1.585
  824SOL    MW4 3328   1.812   1.161   1.623
  825SOL     OW 3329   2.019   1.295   1.536
  825SOL    HW2 3330   2.038   1.386   1.558
  825SOL    HW3 3331   1.997   1.296   1.443
  825SOL    MW4 3332   2.019   1.307   1.527
  826SOL     OW 3333   2.026   1.571   1.605
  826SOL    HW2 3334   2.095   1.619   1.559
  826SOL    HW3 3335   1.945   1.618   1.582
  826SOL    MW4 3336   2.024   1.584   1.596
  827SOL     OW 3337   1.783   1.653   1.477
  827SOL    HW2 3338   1.706   1.607   1.511
  827SOL    HW3 3339   1.786   1.630   1.384
  827SOL    MW4 3340   1.773   1.644   1.469
  828SOL     OW 3341   1.757   1.900   1.594
  828SOL    HW2 3342   1.775   1.816   1.551
  828SOL    HW3 3343   1.683   1.937   1.545
  828SOL    MW4 3344   1.749   1.894   1.582
  829SOL     OW 3345   2.008   2.023   1.506
  829SOL    HW2 3346   2.081   1.979   1.549
  829SOL    HW3 3347   1.930   1.979   1.538
  829SOL    MW4 3348   2.007   2.011   1.516
  830SOL     OW 3349   1.993   2.293   1.567
  830SOL    HW2 3350   2.003   2.307   1.661
  830SOL    HW3 3351   1.983   2.198   1.558
  830SOL    MW4 3352   1.993   2.282   1.578
  831SOL     OW 3353   1.758   2.402   1.436
  831SOL    HW2 3354   1.839   2.361   1.466
  831SOL    HW3 3355   1.781   2.444   1.352
  831SOL    MW4 3356   1.772   2.402   1.429
  832SOL     OW 3357   1.786   2.676   1.585
  832SOL    HW2 3358   1.845   2.742   1.549
  832SOL    HW3 3359   1.810   2.595   1.541
  832SOL    MW4 3360   1.797   2.674   1.575
  833SOL     OW 3361   1.966   2.838   1.433
  833SOL    HW2 3362   1.962   2.924   1.475
  833SOL    HW3 3363   1.976   2.857   1.340
  833SOL    MW4 3364   1.967   2.852   1.427
  834SOL     OW 3365   2.006   3.087   1.540
  834SOL    HW2 3366   2.016   3.080   1.635
  834SOL    HW3 3367   2.094   3.104   1.507
  834SOL    MW4 3368   2.019   3.089   1.548
  835SOL     OW 3369   1.788   3.230   1.457
  835SOL    HW2 3370   1.783   3.319   1.492
  835SOL    HW3 3371   1.872   3.197   1.489
  835SOL    MW4 3372   1.798   3.237   1.466
  836SOL     OW 3373   1.802   3.491   1.571
  836SOL    HW2 3374   1.787   3.467   1.663
  836SOL    HW3 3375   1.720   3.532   1.543
  836SOL    MW4 3376   1.789   3.493   1.580
  837SOL     OW 3377   2.044   3.593   1.510
  837SOL    HW2 3378   2.113   3.531   1.530
  837SOL    HW3 3379   1.964   3.552   1.543
  837SOL    MW4 3380   2.043   3.580   1.517
  838SOL     OW 3381   2.027   3.880   1.598
  838SOL    HW2 3382   2.112   3.910   1.566
  838SOL    HW3 3383   2.030   3.784   1.588
  838SOL    MW4 3384   2.038   3.871   1.592
  839SOL     OW 3385   1.790   4.027   1.496
  839SOL    HW2 3386   1.869   3.992   1.537
  839SOL    HW3 3387   1.726   3.956   1.501
  839SOL    MW4 3388   1.792   4.013   1.502
  840SOL     OW 3389   1.782   4.280   1.600
  840SOL    HW2 3390   1.857   4.313   1.550
  840SOL    HW3 3391   1.771   4.190   1.569
  840SOL    MW4 3392   1.791   4.272   1.589
  841SOL     OW 3393   2.011   4.373   1.467
  841SOL    HW2 3394   2.073   4.326   1.523
  841SOL    HW3 3395   2.010   4.462   1.501
  841SOL    MW4 3396   2.019   4.379   1.479
  842SOL     OW 3397   2.498   4.645   1.547
  842SOL    HW2 3398   2.525   4.650   1.639
  842SOL    HW3 3399   2.418   4.698   1.543
  842SOL    MW4 3400   2.491   4.653   1.559
  843SOL     OW 3401   2.240   0.095   1.475
  843SOL    HW2 3402   2.164   0.042   1.499
  843SOL    HW3 3403   2.237   0.099   1.380
  843SOL    MW4 3404   2.230   0.088   1.466
  844SOL     OW 3405   2.227   0.393   1.556
  844SOL    HW2 3406   2.220   0.403   1.651
  844SOL    HW3 3407   2.239   0.299   1.542
  844SOL    MW4 3408   2.227   0.382   1.566
  845SOL     OW 3409   2.466   0.491   1.459
  845SOL    HW2 3410   2.522   0.429   1.506
  845SOL    HW3 3411   2.378   0.474   1.492
  845SOL    MW4 3412   2.462   0.481   1.470
  846SOL     OW 3413   2.520   0.740   1.590
  846SOL    HW2 3414   2.430   0.773   1.592
  846SOL    HW3 3415   2.514   0.657   1.543
  846SOL    MW4 3416   2.507   0.733   1.584
  847SOL     OW 3417   2.288   0.873   1.531
  847SOL    HW2 3418   2.295   0.966   1.553
  847SOL    HW3 3419   2.299   0.870   1.436
  847SOL    MW4 3420   2.290   0.885   1.521
  848SOL     OW 3421   2.234   1.148   1.633
  848SOL    HW2 3422   2.234   1.162   1.728
  848SOL    HW3 3423   2.149   1.183   1.605
  848SOL    MW4 3424   2.223   1.154   1.642
  849SOL     OW 3425   2.435   1.306   1.531
  849SOL    HW2 3426   2.367   1.249   1.568
  849SOL    HW3 3427   2.424   1.299   1.437
  849SOL    MW4 3428   2.425   1.297   1.524
  850SOL     OW 3429   2.441   1.575   1.615
  850SOL    HW2 3430   2.513   1.606   1.561
  850SOL    HW3 3431   2.433   1.482   1.593
  850SOL    MW4 3432   2.449   1.567   1.605
  851SOL     OW 3433   2.240   1.686   1.465
  851SOL    HW2 3434   2.312   1.649   1.516
  851SOL    HW3 3435   2.264   1.668   1.374
  851SOL    MW4 3436   2.253   1.679   1.460
  852SOL     OW 3437   2.267   1.925   1.592
  852SOL    HW2 3438   2.251   1.906   1.684
  852SOL    HW3 3439   2.262   1.839   1.549
  852SOL    MW4 3440   2.264   1.911   1.598
  853SOL     OW 3441   2.484   2.057   1.457
  853SOL    HW2 3442   2.397   2.028   1.486
  853SOL    HW3 3443   2.479   2.055   1.362
  853SOL    MW4 3444   2.472   2.053   1.449
  854SOL     OW 3445   2.402   2.298   1.558
  854SOL    HW2 3446   2.423   2.304   1.651
  854SOL    HW3 3447   2.435   2.212   1.532
  854SOL    MW4 3448   2.409   2.288   1.567
  855SOL     OW 3449   2.190   2.449   1.457
  855SOL    HW2 3450   2.266   2.398   1.484
  855SOL    HW3 3451   2.116   2.391   1.472
  855SOL    MW4 3452   2.191   2.435   1.462
  856SOL     OW 3453   2.191   2.717   1.543
  856SOL    HW2 3454   2.198   2.628   1.510
  856SOL    HW3 3455   2.117   2.755   1.495
  856SOL    MW4 3456   2.183   2.710   1.532
  857SOL     OW 3457   2.447   2.814   1.466
  857SOL    HW2 3458   2.452   2.901   1.505
  857SOL    HW3 3459   2.356   2.787   1.479
  857SOL    MW4 3460   2.436   2.822   1.473
  858SOL     OW 3461   2.446   3.072   1.589
  858SOL    HW2 3462   2.524   3.123   1.566
  858SOL    HW3 3463   2.374   3.115   1.544
  858SOL    MW4 3464   2.447   3.084   1.580
  859SOL     OW 3465   2.238   3.183   1.440
  859SOL    HW2 3466   2.233   3.270   1.480
  859SOL    HW3 3467   2.237   3.200   1.345
  859SOL    MW4 3468   2.237   3.197   1.432
  860SOL     OW 3469   2.268   3.429   1.563
  860SOL    HW2 3470   2.256   3.450   1.656
  860SOL    HW3 3471   2.338   3.487   1.535
  860SOL    MW4 3472   2.276   3.439   1.572
  861SOL     OW 3473   2.485   3.595   1.472
  861SOL    HW2 3474   2.551   3.541   1.514
  861SOL    HW3 3475   2.493   3.681   1.514
  861SOL    MW4 3476   2.495   3.600   1.483
  862SOL     OW 3477   2.472   3.850   1.573
  862SOL    HW2 3478   2.461   3.866   1.667
  862SOL    HW3 3479   2.554   3.894   1.551
  862SOL    MW4 3480   2.482   3.858   1.583
  863SOL     OW 3481   2.254   3.983   1.487
  863SOL    HW2 3482   2.326   3.930   1.524
  863SOL    HW3 3483   2.250   3.957   1.395
  863SOL    MW4 3484   2.263   3.972   1.480
  864SOL     OW 3485   2.241   4.235   1.589
  864SOL    HW2 3486   2.318   4.283   1.558
  864SOL    HW3 3487   2.233   4.161   1.529
  864SOL    MW4 3488   2.250   4.232   1.577
  865SOL     OW 3489   2.457   4.381   1.475
  865SOL    HW2 3490   2.468   4.472   1.503
  865SOL    HW3 3491   2.471   4.384   1.380
  865SOL    MW4 3492   2.461   4.394   1.466
  866SOL     OW 3493   2.939   4.643   1.582
  866SOL    HW2 3494   2.924   4.644   1.676
  866SOL    HW3 3495   2.862   4.686   1.544
  866SOL    MW4 3496   2.927   4.648   1.589
  867SOL     OW 3497   2.735   0.092   1.469
  867SOL    HW2 3498   2.735   0.174   1.518
  867SOL    HW3 3499   2.653   0.049   1.495
  867SOL    MW4 3500   2.724   0.097   1.479
  868SOL     OW 3501   2.691   0.349   1.558
  868SOL    HW2 3502   2.679   0.355   1.653
  868SOL    HW3 3503   2.767   0.405   1.541
  868SOL    MW4 3504   2.699   0.357   1.569
  869SOL     OW 3505   2.926   0.485   1.481
  869SOL    HW2 3506   2.909   0.575   1.511
  869SOL    HW3 3507   2.903   0.487   1.388
  869SOL    MW4 3508   2.920   0.497   1.473
  870SOL     OW 3509   2.913   0.746   1.554
  870SOL    HW2 3510   2.927   0.770   1.645
  870SOL    HW3 3511   2.845   0.806   1.524
  870SOL    MW4 3512   2.906   0.757   1.562
  871SOL     OW 3513   2.687   0.918   1.465
  871SOL    HW2 3514   2.615   0.864   1.496
  871SOL    HW3 3515   2.686   0.908   1.369
  871SOL    MW4 3516   2.678   0.910   1.456
  872SOL     OW 3517   2.664   1.165   1.617
  872SOL    HW2 3518   2.657   1.078   1.579
  872SOL    HW3 3519   2.584   1.210   1.590
  872SOL    MW4 3520   2.652   1.160   1.609
  873SOL     OW 3521   2.888   1.274   1.489
  873SOL    HW2 3522   2.952   1.234   1.547
  873SOL    HW3 3523   2.803   1.245   1.523
  873SOL    MW4 3524   2.885   1.265   1.501
  874SOL     OW 3525   2.902   1.543   1.558
  874SOL    HW2 3526   2.817   1.585   1.550
  874SOL    HW3 3527   2.891   1.456   1.518
  874SOL    MW4 3528   2.890   1.537   1.552
  875SOL     OW 3529   2.673   1.666   1.500
  875SOL    HW2 3530   2.685   1.760   1.515
  875SOL    HW3 3531   2.679   1.657   1.405
  875SOL    MW4 3532   2.676   1.677   1.490
  876SOL     OW 3533   2.709   1.931   1.576
  876SOL    HW2 3534   2.708   1.924   1.672
  876SOL    HW3 3535   2.628   1.976   1.555
  876SOL    MW4 3536   2.698   1.936   1.586
  877SOL     OW 3537   2.929   2.055   1.476
  877SOL    HW2 3538   2.926   2.145   1.510
  877SOL    HW3 3539   2.848   2.015   1.506
  877SOL    MW4 3540   2.918   2.062   1.484
  878SOL     OW 3541   2.900   2.322   1.530
  878SOL    HW2 3542   2.898   2.324   1.626
  878SOL    HW3 3543   2.823   2.372   1.503
  878SOL    MW4 3544   2.890   2.329   1.539
  879SOL     OW 3545   2.655   2.427   1.486
  879SOL    HW2 3546   2.666   2.505   1.540
  879SOL    HW3 3547   2.573   2.388   1.517
  879SOL    MW4 3548   2.646   2.433   1.497
  880SOL     OW 3549   2.668   2.710   1.589
  880SOL    HW2 3550   2.740   2.767   1.561
  880SOL    HW3 3551   2.590   2.749   1.549
  880SOL    MW4 3552   2.667   2.723   1.580
  881SOL     OW 3553   2.896   2.849   1.477
  881SOL    HW2 3554   2.970   2.809   1.522
  881SOL    HW3 3555   2.896   2.940   1.508
  881SOL    MW4 3556   2.906   2.856   1.487
  882SOL     OW 3557   2.935   3.117   1.562
  882SOL    HW2 3558   2.946   3.086   1.652
  882SOL    HW3 3559   3.007   3.178   1.549
  882SOL    MW4 3560   2.946   3.121   1.572
  883SOL     OW 3561   2.681   3.168   1.507
  883SOL    HW2 3562   2.774   3.162   1.529
  883SOL    HW3 3563   2.678   3.160   1.412
  883SOL    MW4 3564   2.693   3.166   1.498
  884SOL     OW 3565   2.674   3.444   1.596
  884SOL    HW2 3566   2.674   3.443   1.692
  884SOL    HW3 3567   2.671   3.352   1.572
  884SOL    MW4 3568   2.674   3.432   1.606
  885SOL     OW 3569   2.902   3.584   1.501
  885SOL    HW2 3570   2.821   3.536   1.518
  885SOL    HW3 3571   2.915   3.576   1.407
  885SOL    MW4 3572   2.893   3.576   1.491
  886SOL     OW 3573   2.897   3.857   1.610
  886SOL    HW2 3574   2.825   3.898   1.562
  886SOL    HW3 3575   2.893   3.765   1.585
  886SOL    MW4 3576   2.887   3.850   1.601
  887SOL     OW 3577   2.699   3.977   1.470
  887SOL    HW2 3578   2.674   4.064   1.499
  887SOL    HW3 3579   2.710   3.985   1.375
  887SOL    MW4 3580   2.697   3.989   1.461
  888SOL     OW 3581   2.652   4.221   1.581
  888SOL    HW2 3582   2.732   4.257   1.542
  888SOL    HW3 3583   2.582   4.276   1.546
  888SOL    MW4 3584   2.654   4.233   1.571
  889SOL     OW 3585   2.871   4.388   1.483
  889SOL    HW2 3586   2.887   4.479   1.507
  889SOL    HW3 3587   2.906   4.380   1.393
  889SOL    MW4 3588   2.878   4.399   1.474
  890SOL     OW 3589   3.359   4.643   1.590
  890SOL    HW2 3590   3.445   4.684   1.575
  890SOL    HW3 3591   3.367   4.555   1.553
  890SOL    MW4 3592   3.371   4.637   1.583
  891SOL     OW 3593   3.140   0.116   1.479
  891SOL    HW2 3594   3.216   0.081   1.525
  891SOL    HW3 3595   3.065   0.067   1.514
  891SOL    MW4 3596   3.140   0.105   1.490
  892SOL     OW 3597   3.162   0.359   1.602
  892SOL    HW2 3598   3.164   0.278   1.550
  892SOL    HW3 3599   3.085   0.405   1.570
  892SOL    MW4 3600   3.152   0.354   1.591
  893SOL     OW 3601   3.349   0.519   1.498
  893SOL    HW2 3602   3.281   0.469   1.542
  893SOL    HW3 3603   3.347   0.489   1.407
  893SOL    MW4 3604   3.340   0.509   1.491
  894SOL     OW 3605   3.367   0.774   1.588
  894SOL    HW2 3606   3.378   0.762   1.682
  894SOL    HW3 3607   3.359   0.685   1.553
  894SOL    MW4 3608   3.367   0.761   1.596
  895SOL     OW 3609   3.130   0.897   1.485
  895SOL    HW2 3610   3.211   0.866   1.526
  895SOL    HW3 3611   3.064   0.833   1.512
  895SOL    MW4 3612   3.132   0.884   1.494
  896SOL     OW 3613   3.111   1.156   1.605
  896SOL    HW2 3614   3.116   1.156   1.700
  896SOL    HW3 3615   3.126   1.065   1.580
  896SOL    MW4 3616   3.114   1.144   1.614
  897SOL     OW 3617   3.352   1.272   1.496
  897SOL    HW2 3618   3.421   1.229   1.548
  897SOL    HW3 3619   3.270   1.239   1.534
  897SOL    MW4 3620   3.350   1.262   1.508
  898SOL     OW 3621   3.338   1.542   1.571
  898SOL    HW2 3622   3.329   1.526   1.665
  898SOL    HW3 3623   3.338   1.455   1.531
  898SOL    MW4 3624   3.337   1.528   1.578
  899SOL     OW 3625   3.113   1.694   1.482
  899SOL    HW2 3626   3.189   1.641   1.507
  899SOL    HW3 3627   3.038   1.637   1.501
  899SOL    MW4 3628   3.113   1.679   1.488
  900SOL     OW 3629   3.158   1.958   1.580
  900SOL    HW2 3630   3.151   1.866   1.557
  900SOL    HW3 3631   3.073   1.995   1.557
  900SOL    MW4 3632   3.146   1.951   1.574
  901SOL     OW 3633   3.414   2.074   1.493
  901SOL    HW2 3634   3.336   2.052   1.544
  901SOL    HW3 3635   3.392   2.046   1.404
  901SOL    MW4 3636   3.401   2.067   1.488
  902SOL     OW 3637   3.367   2.336   1.559
  902SOL    HW2 3638   3.436   2.397   1.529
  902SOL    HW3 3639   3.396   2.250   1.528
  902SOL    MW4 3640   3.380   2.333   1.551
  903SOL     OW 3641   3.138   2.443   1.432
  903SOL    HW2 3642   3.216   2.410   1.476
  903SOL    HW3 3643   3.067   2.387   1.463
  903SOL    MW4 3644   3.139   2.431   1.442
  904SOL     OW 3645   3.119   2.681   1.575
  904SOL    HW2 3646   3.195   2.734   1.553
  904SOL    HW3 3647   3.133   2.598   1.531
  904SOL    MW4 3648   3.131   2.677   1.566
  905SOL     OW 3649   3.335   2.806   1.452
  905SOL    HW2 3650   3.364   2.894   1.478
  905SOL    HW3 3651   3.379   2.790   1.369
  905SOL    MW4 3652   3.344   2.815   1.444
  906SOL     OW 3653   3.393   3.047   1.594
  906SOL    HW2 3654   3.382   3.091   1.678
  906SOL    HW3 3655   3.469   3.088   1.554
  906SOL    MW4 3656   3.402   3.058   1.599
  907SOL     OW 3657   3.177   3.236   1.508
  907SOL    HW2 3658   3.245   3.176   1.538
  907SOL    HW3 3659   3.177   3.226   1.412
  907SOL    MW4 3660   3.186   3.227   1.499
  908SOL     OW 3661   3.177   3.494   1.587
  908SOL    HW2 3662   3.188   3.404   1.559
  908SOL    HW3 3663   3.094   3.522   1.549
  908SOL    MW4 3664   3.167   3.486   1.579
  909SOL     OW 3665   3.402   3.627   1.511
  909SOL    HW2 3666   3.471   3.574   1.551
  909SOL    HW3 3667   3.321   3.580   1.531
  909SOL    MW4 3668   3.400   3.614   1.519
  910SOL     OW 3669   3.408   3.888   1.577
  910SOL    HW2 3670   3.322   3.922   1.554
  910SOL    HW3 3671   3.403   3.794   1.557
  910SOL    MW4 3672   3.396   3.880   1.571
  911SOL     OW 3673   3.136   4.007   1.497
  911SOL    HW2 3674   3.140   4.099   1.521
  911SOL    HW3 3675   3.055   3.975   1.537
  911SOL    MW4 3676   3.126   4.015   1.506
  912SOL     OW 3677   3.135   4.290   1.573
  912SOL    HW2 3678   3.142   4.285   1.669
  912SOL    HW3 3679   3.043   4.311   1.557
  912SOL    MW4 3680   3.124   4.292   1.584
  913SOL     OW 3681   3.379   4.386   1.503
  913SOL    HW2 3682   3.302   4.341   1.536
  913SOL    HW3 3683   3.362   4.398   1.410
  913SOL    MW4 3684   3.367   4.382   1.495
  914SOL     OW 3685   3.793   4.664   1.566
  914SOL    HW2 3686   3.794   4.658   1.661
  914SOL    HW3 3687   3.873   4.712   1.544
  914SOL    MW4 3688   3.804   4.669   1.575
  915SOL     OW 3689   3.576   0.134   1.493
  915SOL    HW2 3690   3.657   0.085   1.510
  915SOL    HW3 3691   3.565   0.131   1.398
  915SOL    MW4 3692   3.585   0.127   1.483
  916SOL     OW 3693   3.560   0.367   1.617
  916SOL    HW2 3694   3.568   0.281   1.577
  916SOL    HW3 3695   3.485   0.407   1.572
  916SOL    MW4 3696   3.551   0.361   1.605
  917SOL     OW 3697   3.803   0.485   1.539
  917SOL    HW2 3698   3.729   0.427   1.553
  917SOL    HW3 3699   3.805   0.499   1.444
  917SOL    MW4 3700   3.793   0.480   1.528
  918SOL     OW 3701   3.824   0.737   1.655
  918SOL    HW2 3702   3.744   0.780   1.625
  918SOL    HW3 3703   3.812   0.645   1.631
  918SOL    MW4 3704   3.812   0.730   1.648
  919SOL     OW 3705   3.616   0.878   1.533
  919SOL    HW2 3706   3.532   0.832   1.539
  919SOL    HW3 3707   3.635   0.882   1.439
  919SOL    MW4 3708   3.607   0.873   1.521
  920SOL     OW 3709   3.594   1.152   1.606
  920SOL    HW2 3710   3.677   1.188   1.577
  920SOL    HW3 3711   3.601   1.058   1.587
  920SOL    MW4 3712   3.605   1.144   1.599
  921SOL     OW 3713   3.821   1.252   1.498
  921SOL    HW2 3714   3.895   1.203   1.533
  921SOL    HW3 3715   3.828   1.339   1.537
  921SOL    MW4 3716   3.831   1.257   1.507
  922SOL     OW 3717   3.806   1.511   1.565
  922SOL    HW2 3718   3.809   1.524   1.659
  922SOL    HW3 3719   3.735   1.567   1.534
  922SOL    MW4 3720   3.797   1.520   1.573
  923SOL     OW 3721   3.573   1.664   1.484
  923SOL    HW2 3722   3.494   1.622   1.518
  923SOL    HW3 3723   3.570   1.647   1.390
  923SOL    MW4 3724   3.562   1.656   1.476
  924SOL     OW 3725   3.614   1.929   1.586
  924SOL    HW2 3726   3.610   1.841   1.549
  924SOL    HW3 3727   3.543   1.977   1.543
  924SOL    MW4 3728   3.604   1.924   1.575
  925SOL     OW 3729   3.832   2.052   1.463
  925SOL    HW2 3730   3.840   2.146   1.477
  925SOL    HW3 3731   3.758   2.026   1.519
  925SOL    MW4 3732   3.823   2.061   1.472
  926SOL     OW 3733   3.773   2.307   1.552
  926SOL    HW2 3734   3.773   2.295   1.647
  926SOL    HW3 3735   3.862   2.338   1.532
  926SOL    MW4 3736   3.785   2.310   1.562
  927SOL     OW 3737   3.583   2.482   1.448
  927SOL    HW2 3738   3.603   2.572   1.473
  927SOL    HW3 3739   3.648   2.430   1.495
  927SOL    MW4 3740   3.594   2.487   1.458
  928SOL     OW 3741   3.582   2.730   1.593
  928SOL    HW2 3742   3.593   2.727   1.688
  928SOL    HW3 3743   3.492   2.761   1.580
  928SOL    MW4 3744   3.571   2.734   1.604
  929SOL     OW 3745   3.832   2.824   1.494
  929SOL    HW2 3746   3.895   2.759   1.526
  929SOL    HW3 3747   3.749   2.798   1.535
  929SOL    MW4 3748   3.829   2.812   1.504
  930SOL     OW 3749   3.840   3.096   1.616
  930SOL    HW2 3750   3.913   3.147   1.579
  930SOL    HW3 3751   3.853   3.008   1.581
  930SOL    MW4 3752   3.851   3.091   1.606
  931SOL     OW 3753   3.600   3.192   1.501
  931SOL    HW2 3754   3.681   3.154   1.535
  931SOL    HW3 3755   3.611   3.190   1.406
  931SOL    MW4 3756   3.612   3.186   1.493
  932SOL     OW 3757   3.594   3.457   1.621
  932SOL    HW2 3758   3.679   3.494   1.594
  932SOL    HW3 3759   3.591   3.371   1.578
  932SOL    MW4 3760   3.605   3.451   1.612
  933SOL     OW 3761   3.840   3.586   1.549
  933SOL    HW2 3762   3.922   3.547   1.582
  933SOL    HW3 3763   3.848   3.679   1.568
  933SOL    MW4 3764   3.852   3.593   1.556
  934SOL     OW 3765   3.827   3.856   1.618
  934SOL    HW2 3766   3.912   3.889   1.588
  934SOL    HW3 3767   3.763   3.911   1.574
  934SOL    MW4 3768   3.830   3.867   1.608
  935SOL     OW 3769   3.642   3.986   1.470
  935SOL    HW2 3770   3.648   4.074   1.508
  935SOL    HW3 3771   3.559   3.952   1.502
  935SOL    MW4 3772   3.632   3.993   1.479
  936SOL     OW 3773   3.632   4.262   1.551
  936SOL    HW2 3774   3.627   4.254   1.646
  936SOL    HW3 3775   3.555   4.313   1.527
  936SOL    MW4 3776   3.621   4.268   1.560
  937SOL     OW 3777   3.848   4.403   1.476
  937SOL    HW2 3778   3.770   4.351   1.495
  937SOL    HW3 3779   3.827   4.491   1.507
  937SOL    MW4 3780   3.835   4.407   1.483
  938SOL     OW 3781   4.260   4.664   1.590
  938SOL    HW2 3782   4.270   4.652   1.684
  938SOL    HW3 3783   4.250   4.575   1.556
  938SOL    MW4 3784   4.260   4.650   1.598
  939SOL     OW 3785   4.038   0.155   1.505
  939SOL    HW2 3786   4.038   0.244   1.540
  939SOL    HW3 3787   4.122   0.119   1.533
  939SOL    MW4 3788   4.049   0.162   1.514
  940SOL     OW 3789   4.070   0.410   1.629
  940SOL    HW2 3790   4.068   0.396   1.724
  940SOL    HW3 3791   3.979   0.420   1.604
  940SOL    MW4 3792   4.058   0.409   1.638
  941SOL     OW 3793   4.279   0.505   1.494
  941SOL    HW2 3794   4.206   0.466   1.543
  941SOL    HW3 3795   4.358   0.472   1.538
  941SOL    MW4 3796   4.280   0.495   1.507
  942SOL     OW 3797   4.253   0.761   1.600
  942SOL    HW2 3798   4.272   0.675   1.562
  942SOL    HW3 3799   4.326   0.816   1.573
  942SOL    MW4 3800   4.265   0.757   1.591
  943SOL     OW 3801   4.007   0.869   1.518
  943SOL    HW2 3802   4.091   0.826   1.536
  943SOL    HW3 3803   3.943   0.819   1.569
  943SOL    MW4 3804   4.010   0.856   1.527
  944SOL     OW 3805   4.045   1.136   1.612
  944SOL    HW2 3806   4.046   1.132   1.708
  944SOL    HW3 3807   4.041   1.044   1.584
  944SOL    MW4 3808   4.045   1.123   1.621
  945SOL     OW 3809   4.261   1.273   1.505
  945SOL    HW2 3810   4.191   1.221   1.544
  945SOL    HW3 3811   4.342   1.229   1.531
  945SOL    MW4 3812   4.263   1.261   1.513
  946SOL     OW 3813   4.250   1.531   1.614
  946SOL    HW2 3814   4.252   1.443   1.576
  946SOL    HW3 3815   4.327   1.575   1.578
  946SOL    MW4 3816   4.261   1.525   1.604
  947SOL     OW 3817   4.025   1.671   1.509
  947SOL    HW2 3818   4.098   1.634   1.559
  947SOL    HW3 3819   3.951   1.615   1.531
  947SOL    MW4 3820   4.025   1.658   1.518
  948SOL     OW 3821   4.086   1.932   1.555
  948SOL    HW2 3822   4.076   1.839   1.533
  948SOL    HW3 3823   4.000   1.970   1.535
  948SOL    MW4 3824   4.073   1.925   1.549
  949SOL     OW 3825   4.306   2.057   1.465
  949SOL    HW2 3826   4.224   2.017   1.492
  949SOL    HW3 3827   4.306   2.050   1.369
  949SOL    MW4 3828   4.295   2.051   1.456
  950SOL     OW 3829   4.280   2.300   1.582
  950SOL    HW2 3830   4.266   2.289   1.676
  950SOL    HW3 3831   4.302   2.213   1.551
  950SOL    MW4 3832   4.281   2.287   1.590
  951SOL     OW 3833   4.028   2.415   1.500
  951SOL    HW2 3834   4.022   2.505   1.531
  951SOL    HW3 3835   4.118   2.389   1.520
  951SOL    MW4 3836   4.039   2.423   1.507
  952SOL     OW 3837   4.029   2.660   1.590
  952SOL    HW2 3838   4.025   2.675   1.684
  952SOL    HW3 3839   4.106   2.708   1.561
  952SOL    MW4 3840   4.039   2.668   1.598
  953SOL     OW 3841   4.235   2.840   1.502
  953SOL    HW2 3842   4.247   2.929   1.533
  953SOL    HW3 3843   4.241   2.846   1.407
  953SOL    MW4 3844   4.238   2.852   1.494
  954SOL     OW 3845   4.242   3.095   1.584
  954SOL    HW2 3846   4.243   3.106   1.679
  954SOL    HW3 3847   4.327   3.130   1.555
  954SOL    MW4 3848   4.254   3.101   1.593
  955SOL     OW 3849   4.043   3.238   1.495
  955SOL    HW2 3850   4.043   3.322   1.542
  955SOL    HW3 3851   4.127   3.198   1.518
  955SOL    MW4 3852   4.054   3.244   1.504
  956SOL     OW 3853   4.077   3.478   1.619
  956SOL    HW2 3854   4.076   3.482   1.714
  956SOL    HW3 3855   4.136   3.548   1.592
  956SOL    MW4 3856   4.084   3.487   1.628
  957SOL     OW 3857   4.283   3.628   1.510
  957SOL    HW2 3858   4.288   3.719   1.540
  957SOL    HW3 3859   4.299   3.633   1.415
  957SOL    MW4 3860   4.286   3.641   1.501
  958SOL     OW 3861   4.297   3.883   1.590
  958SOL    HW2 3862   4.211   3.917   1.567
  958SOL    HW3 3863   4.357   3.929   1.532
  958SOL    MW4 3864   4.294   3.893   1.579
  959SOL     OW 3865   4.057   3.976   1.513
  959SOL    HW2 3866   4.067   4.069   1.534
  959SOL    HW3 3867   4.043   3.974   1.418
  959SOL    MW4 3868   4.056   3.988   1.503
  960SOL     OW 3869   4.083   4.242   1.551
  960SOL    HW2 3870   4.080   4.249   1.646
  960SOL    HW3 3871   4.015   4.302   1.520
  960SOL    MW4 3872   4.074   4.251   1.559
  961SOL     OW 3873   4.298   4.404   1.468
  961SOL    HW2 3874   4.238   4.338   1.502
  961SOL    HW3 3875   4.277   4.410   1.375
  961SOL    MW4 3876   4.287   4.396   1.461
  962SOL     OW 3877   0.233   4.640   1.862
  962SOL    HW2 3878   0.305   4.684   1.908
  962SOL    HW3 3879   0.241   4.669   1.771
  962SOL    MW4 3880   0.244   4.650   1.856
  963SOL     OW 3881   0.011   0.100   1.966
  963SOL    HW2 3882   0.003   0.189   1.932
  963SOL    HW3 3883   0.075   0.058   1.909
  963SOL    MW4 3884   0.018   0.106   1.954
  964SOL     OW 3885   4.484   0.362   1.867
  964SOL    HW2 3886   4.408   0.412   1.897
  964SOL    HW3 3887   4.560   0.412   1.900
  964SOL    MW4 3888   4.484   0.375   1.876
  965SOL     OW 3889   0.224   0.513   1.952
  965SOL    HW2 3890   0.291   0.461   1.908
  965SOL    HW3 3891   0.214   0.590   1.896
  965SOL    MW4 3892   0.231   0.516   1.939
  966SOL     OW 3893   0.199   0.782   1.859
  966SOL    HW2 3894   0.274   0.822   1.902
  966SOL    HW3 3895   0.209   0.803   1.766
  966SOL    MW4 3896   0.210   0.790   1.852
  967SOL     OW 3897   4.466   0.875   1.955
  967SOL    HW2 3898   4.393   0.814   1.940
  967SOL    HW3 3899   4.541   0.834   1.910
  967SOL    MW4 3900   4.466   0.861   1.947
  968SOL     OW 3901   0.023   1.144   1.865
  968SOL    HW2 3902  -0.062   1.175   1.897
  968SOL    HW3 3903   0.024   1.051   1.888
  968SOL    MW4 3904   0.012   1.136   1.872
  969SOL     OW 3905   0.209   1.288   1.999
  969SOL    HW2 3906   0.191   1.373   1.959
  969SOL    HW3 3907   0.149   1.227   1.955
  969SOL    MW4 3908   0.198   1.291   1.988
  970SOL     OW 3909   0.223   1.529   1.865
  970SOL    HW2 3910   0.305   1.577   1.878
  970SOL    HW3 3911   0.157   1.580   1.912
  970SOL    MW4 3912   0.225   1.542   1.873
  971SOL     OW 3913   0.014   1.658   1.974
  971SOL    HW2 3914   0.015   1.679   2.068
  971SOL    HW3 3915  -0.071   1.617   1.959
  971SOL    MW4 3916   0.003   1.656   1.985
  972SOL     OW 3917   4.459   1.928   1.864
  972SOL    HW2 3918   4.382   1.969   1.904
  972SOL    HW3 3919   4.455   1.837   1.894
  972SOL    MW4 3920   4.448   1.921   1.873
  973SOL     OW 3921   0.206   2.041   1.980
  973SOL    HW2 3922   0.207   2.130   1.945
  973SOL    HW3 3923   0.141   1.995   1.927
  973SOL    MW4 3924   0.198   2.046   1.969
  974SOL     OW 3925   0.230   2.296   1.863
  974SOL    HW2 3926   0.298   2.357   1.893
  974SOL    HW3 3927   0.148   2.336   1.892
  974SOL    MW4 3928   0.228   2.310   1.871
  975SOL     OW 3929   0.008   2.451   1.947
  975SOL    HW2 3930  -0.002   2.466   2.041
  975SOL    HW3 3931  -0.008   2.537   1.908
  975SOL    MW4 3932   0.004   2.464   1.954
  976SOL     OW 3933   4.443   2.704   1.847
  976SOL    HW2 3934   4.363   2.753   1.865
  976SOL    HW3 3935   4.451   2.706   1.751
  976SOL    MW4 3936   4.434   2.711   1.836
  977SOL     OW 3937   0.178   2.831   2.017
  977SOL    HW2 3938   0.174   2.911   1.965
  977SOL    HW3 3939   0.106   2.778   1.985
  977SOL    MW4 3940   0.168   2.835   2.006
  978SOL     OW 3941   0.219   3.067   1.874
  978SOL    HW2 3942   0.306   3.095   1.902
  978SOL    HW3 3943   0.225   3.060   1.779
  978SOL    MW4 3944   0.231   3.070   1.865
  979SOL     OW 3945   4.480   3.207   1.981
  979SOL    HW2 3946   4.394   3.173   1.956
  979SOL    HW3 3947   4.543   3.146   1.942
  979SOL    MW4 3948   4.477   3.195   1.972
  980SOL     OW 3949   4.479   3.460   1.896
  980SOL    HW2 3950   4.561   3.497   1.929
  980SOL    HW3 3951   4.481   3.368   1.924
  980SOL    MW4 3952   4.490   3.453   1.904
  981SOL     OW 3953   0.211   3.591   1.994
  981SOL    HW2 3954   0.200   3.586   2.089
  981SOL    HW3 3955   0.298   3.556   1.977
  981SOL    MW4 3956   0.221   3.586   2.004
  982SOL     OW 3957   0.202   3.837   1.878
  982SOL    HW2 3958   0.285   3.881   1.897
  982SOL    HW3 3959   0.211   3.751   1.920
  982SOL    MW4 3960   0.214   3.831   1.886
  983SOL     OW 3961   4.480   4.000   1.969
  983SOL    HW2 3962   4.481   4.081   1.919
  983SOL    HW3 3963   4.561   3.955   1.945
  983SOL    MW4 3964   4.491   4.005   1.959
  984SOL     OW 3965   4.483   4.249   1.851
  984SOL    HW2 3966   4.409   4.299   1.888
  984SOL    HW3 3967   4.560   4.287   1.893
  984SOL    MW4 3968   4.483   4.261   1.862
  985SOL     OW 3969   0.221   4.384   1.942
  985SOL    HW2 3970   0.224   4.387   2.038
  985SOL    HW3 3971   0.220   4.476   1.916
  985SOL    MW4 3972   0.221   4.396   1.951
  986SOL     OW 3973   0.667   0.020   1.866
  986SOL    HW2 3974   0.666  -0.072   1.894
  986SOL    HW3 3975   0.691   0.016   1.774
  986SOL    MW4 3976   0.670   0.007   1.858
  987SOL     OW 3977   0.437   0.128   1.955
  987SOL    HW2 3978   0.418   0.207   1.905
  987SOL    HW3 3979   0.516   0.092   1.914
  987SOL    MW4 3980   0.445   0.134   1.943
  988SOL     OW 3981   0.430   0.355   1.810
  988SOL    HW2 3982   0.511   0.390   1.846
  988SOL    HW3 3983   0.440   0.364   1.716
  988SOL    MW4 3984   0.442   0.361   1.803
  989SOL     OW 3985   0.622   0.498   1.939
  989SOL    HW2 3986   0.594   0.491   2.031
  989SOL    HW3 3987   0.711   0.464   1.939
  989SOL    MW4 3988   0.630   0.492   1.951
  990SOL     OW 3989   0.668   0.779   1.877
  990SOL    HW2 3990   0.754   0.808   1.906
  990SOL    HW3 3991   0.667   0.685   1.895
  990SOL    MW4 3992   0.679   0.770   1.883
  991SOL     OW 3993   0.425   0.891   1.964
  991SOL    HW2 3994   0.419   0.979   1.926
  991SOL    HW3 3995   0.510   0.858   1.936
  991SOL    MW4 3996   0.435   0.898   1.955
  992SOL     OW 3997   0.444   1.156   1.880
  992SOL    HW2 3998   0.365   1.208   1.898
  992SOL    HW3 3999   0.459   1.167   1.786
  992SOL    MW4 4000   0.436   1.164   1.870
  993SOL     OW 4001   0.677   1.286   1.975
  993SOL    HW2 4002   0.685   1.295   2.070
  993SOL    HW3 4003   0.595   1.240   1.961
  993SOL    MW4 4004   0.667   1.281   1.985
  994SOL     OW 4005   0.673   1.531   1.860
  994SOL    HW2 4006   0.667   1.439   1.884
  994SOL    HW3 4007   0.691   1.529   1.766
  994SOL    MW4 4008   0.674   1.518   1.851
  995SOL     OW 4009   0.459   1.684   1.953
  995SOL    HW2 4010   0.437   1.661   2.043
  995SOL    HW3 4011   0.547   1.648   1.940
  995SOL    MW4 4012   0.467   1.676   1.963
  996SOL     OW 4013   0.469   1.963   1.900
  996SOL    HW2 4014   0.473   1.867   1.909
  996SOL    HW3 4015   0.380   1.986   1.925
  996SOL    MW4 4016   0.458   1.953   1.905
  997SOL     OW 4017   0.707   2.090   1.988
  997SOL    HW2 4018   0.697   2.070   2.081
  997SOL    HW3 4019   0.627   2.058   1.948
  997SOL    MW4 4020   0.695   2.083   1.995
  998SOL     OW 4021   0.679   2.356   1.905
  998SOL    HW2 4022   0.675   2.269   1.944
  998SOL    HW3 4023   0.688   2.340   1.811
  998SOL    MW4 4024   0.679   2.343   1.897
  999SOL     OW 4025   0.442   2.472   1.959
  999SOL    HW2 4026   0.442   2.459   2.054
  999SOL    HW3 4027   0.525   2.435   1.929
  999SOL    MW4 4028   0.453   2.466   1.967
 1000SOL     OW 4029   0.418   2.740   1.900
 1000SOL    HW2 4030   0.426   2.648   1.928
 1000SOL    HW3 4031   0.343   2.773   1.950
 1000SOL    MW4 4032   0.409   2.732   1.911
 1001SOL     OW 4033   0.674   2.839   1.967
 1001SOL    HW2 4034   0.673   2.855   2.061
 1001SOL    HW3 4035   0.589   2.800   1.949
 1001SOL    MW4 4036   0.663   2.836   1.977
 1002SOL     OW 4037   0.648   3.104   1.887
 1002SOL    HW2 4038   0.643   3.011   1.907
 1002SOL    HW3 4039   0.653   3.108   1.792
 1002SOL    MW4 4040   0.648   3.093   1.877
 1003SOL     OW 4041   0.422   3.214   2.006
 1003SOL    HW2 4042   0.427   3.303   1.971
 1003SOL    HW3 4043   0.501   3.171   1.974
 1003SOL    MW4 4044   0.433   3.220   1.998
 1004SOL     OW 4045   0.449   3.474   1.928
 1004SOL    HW2 4046   0.521   3.531   1.956
 1004SOL    HW3 4047   0.462   3.464   1.834
 1004SOL    MW4 4048   0.460   3.481   1.919
 1005SOL     OW 4049   0.709   3.598   1.978
 1005SOL    HW2 4050   0.793   3.564   1.947
 1005SOL    HW3 4051   0.707   3.689   1.947
 1005SOL    MW4 4052   0.720   3.606   1.970
 1006SOL     OW 4053   0.672   3.863   1.886
 1006SOL    HW2 4054   0.748   3.910   1.920
 1006SOL    HW3 4055   0.676   3.876   1.791
 1006SOL    MW4 4056   0.682   3.871   1.878
 1007SOL     OW 4057   0.430   3.973   1.969
 1007SOL    HW2 4058   0.439   4.064   1.941
 1007SOL    HW3 4059   0.511   3.931   1.939
 1007SOL    MW4 4060   0.442   3.979   1.962
 1008SOL     OW 4061   0.430   4.229   1.867
 1008SOL    HW2 4062   0.366   4.297   1.891
 1008SOL    HW3 4063   0.431   4.230   1.772
 1008SOL    MW4 4064   0.422   4.238   1.858
 1009SOL     OW 4065   0.624   4.406   1.957
 1009SOL    HW2 4066   0.712   4.371   1.942
 1009SOL    HW3 4067   0.565   4.340   1.920
 1009SOL    MW4 4068   0.628   4.392   1.950
 1010SOL     OW 4069   1.108   0.013   1.862
 1010SOL    HW2 4070   1.199   0.035   1.884
 1010SOL    HW3 4071   1.096  -0.075   1.898
 1010SOL    MW4 4072   1.119   0.004   1.870
 1011SOL     OW 4073   0.894   0.127   2.002
 1011SOL    HW2 4074   0.966   0.081   1.959
 1011SOL    HW3 4075   0.815   0.091   1.961
 1011SOL    MW4 4076   0.893   0.116   1.991
 1012SOL     OW 4077   0.890   0.413   1.894
 1012SOL    HW2 4078   0.964   0.465   1.928
 1012SOL    HW3 4079   0.894   0.331   1.943
 1012SOL    MW4 4080   0.901   0.409   1.905
 1013SOL     OW 4081   1.145   0.515   1.962
 1013SOL    HW2 4082   1.218   0.478   1.912
 1013SOL    HW3 4083   1.138   0.605   1.930
 1013SOL    MW4 4084   1.154   0.522   1.951
 1014SOL     OW 4085   1.154   0.779   1.887
 1014SOL    HW2 4086   1.225   0.825   1.933
 1014SOL    HW3 4087   1.075   0.829   1.908
 1014SOL    MW4 4088   1.153   0.792   1.896
 1015SOL     OW 4089   0.903   0.886   1.979
 1015SOL    HW2 4090   0.916   0.889   2.074
 1015SOL    HW3 4091   0.894   0.978   1.954
 1015SOL    MW4 4092   0.904   0.899   1.989
 1016SOL     OW 4093   0.888   1.145   1.882
 1016SOL    HW2 4094   0.813   1.185   1.924
 1016SOL    HW3 4095   0.875   1.161   1.789
 1016SOL    MW4 4096   0.877   1.153   1.875
 1017SOL     OW 4097   1.129   1.242   1.963
 1017SOL    HW2 4098   1.120   1.327   1.921
 1017SOL    HW3 4099   1.047   1.196   1.946
 1017SOL    MW4 4100   1.117   1.247   1.955
 1018SOL     OW 4101   1.149   1.498   1.833
 1018SOL    HW2 4102   1.059   1.528   1.848
 1018SOL    HW3 4103   1.164   1.513   1.740
 1018SOL    MW4 4104   1.139   1.504   1.823
 1019SOL     OW 4105   0.908   1.628   1.934
 1019SOL    HW2 4106   0.919   1.723   1.929
 1019SOL    HW3 4107   0.815   1.613   1.916
 1019SOL    MW4 4108   0.897   1.639   1.931
 1020SOL     OW 4109   0.897   1.921   1.915
 1020SOL    HW2 4110   0.820   1.975   1.933
 1020SOL    HW3 4111   0.911   1.931   1.821
 1020SOL    MW4 4112   0.889   1.930   1.905
 1021SOL     OW 4113   1.122   2.059   2.019
 1021SOL    HW2 4114   1.102   2.142   1.976
 1021SOL    HW3 4115   1.045   2.004   2.003
 1021SOL    MW4 4116   1.109   2.062   2.011
 1022SOL     OW 4117   1.079   2.308   1.855
 1022SOL    HW2 4118   1.159   2.345   1.892
 1022SOL    HW3 4119   1.082   2.330   1.762
 1022SOL    MW4 4120   1.090   2.316   1.848
 1023SOL     OW 4121   0.914   2.472   2.006
 1023SOL    HW2 4122   0.983   2.419   1.965
 1023SOL    HW3 4123   0.833   2.431   1.976
 1023SOL    MW4 4124   0.912   2.460   1.996
 1024SOL     OW 4125   0.925   2.746   1.919
 1024SOL    HW2 4126   0.932   2.660   1.960
 1024SOL    HW3 4127   0.834   2.771   1.931
 1024SOL    MW4 4128   0.914   2.738   1.926
 1025SOL     OW 4129   1.160   2.871   2.004
 1025SOL    HW2 4130   1.156   2.866   2.099
 1025SOL    HW3 4131   1.074   2.840   1.975
 1025SOL    MW4 4132   1.148   2.866   2.012
 1026SOL     OW 4133   1.153   3.153   1.886
 1026SOL    HW2 4134   1.065   3.185   1.908
 1026SOL    HW3 4135   1.161   3.071   1.934
 1026SOL    MW4 4136   1.142   3.147   1.895
 1027SOL     OW 4137   0.901   3.210   1.971
 1027SOL    HW2 4138   0.906   3.210   2.066
 1027SOL    HW3 4139   0.827   3.153   1.950
 1027SOL    MW4 4140   0.892   3.202   1.981
 1028SOL     OW 4141   0.938   3.479   1.889
 1028SOL    HW2 4142   0.928   3.387   1.912
 1028SOL    HW3 4143   0.909   3.484   1.798
 1028SOL    MW4 4144   0.933   3.467   1.880
 1029SOL     OW 4145   1.122   3.630   2.012
 1029SOL    HW2 4146   1.109   3.616   2.106
 1029SOL    HW3 4147   1.067   3.564   1.971
 1029SOL    MW4 4148   1.113   3.619   2.019
 1030SOL     OW 4149   1.108   3.882   1.893
 1030SOL    HW2 4150   1.106   3.794   1.930
 1030SOL    HW3 4151   1.082   3.869   1.801
 1030SOL    MW4 4152   1.104   3.868   1.885
 1031SOL     OW 4153   0.881   4.014   1.998
 1031SOL    HW2 4154   0.894   4.024   2.092
 1031SOL    HW3 4155   0.960   3.969   1.967
 1031SOL    MW4 4156   0.893   4.009   2.006
 1032SOL     OW 4157   0.880   4.288   1.873
 1032SOL    HW2 4158   0.966   4.324   1.896
 1032SOL    HW3 4159   0.889   4.194   1.889
 1032SOL    MW4 4160   0.893   4.280   1.878
 1033SOL     OW 4161   1.126   4.421   1.952
 1033SOL    HW2 4162   1.102   4.408   2.043
 1033SOL    HW3 4163   1.204   4.367   1.939
 1033SOL    MW4 4164   1.133   4.412   1.962
 1034SOL     OW 4165   1.555   4.648   1.809
 1034SOL    HW2 4166   1.631   4.692   1.847
 1034SOL    HW3 4167   1.560   4.559   1.842
 1034SOL    MW4 4168   1.566   4.642   1.818
 1035SOL     OW 4169   1.341   0.131   1.931
 1035SOL    HW2 4170   1.372   0.107   2.019
 1035SOL    HW3 4171   1.413   0.106   1.873
 1035SOL    MW4 4172   1.354   0.124   1.935
 1036SOL     OW 4173   1.352   0.392   1.817
 1036SOL    HW2 4174   1.341   0.300   1.839
 1036SOL    HW3 4175   1.349   0.394   1.721
 1036SOL    MW4 4176   1.350   0.380   1.807
 1037SOL     OW 4177   1.562   0.501   1.972
 1037SOL    HW2 4178   1.630   0.446   1.934
 1037SOL    HW3 4179   1.481   0.473   1.929
 1037SOL    MW4 4180   1.560   0.490   1.961
 1038SOL     OW 4181   1.573   0.773   1.902
 1038SOL    HW2 4182   1.659   0.789   1.940
 1038SOL    HW3 4183   1.545   0.689   1.939
 1038SOL    MW4 4184   1.580   0.764   1.912
 1039SOL     OW 4185   1.367   0.905   2.006
 1039SOL    HW2 4186   1.366   0.895   2.101
 1039SOL    HW3 4187   1.446   0.858   1.977
 1039SOL    MW4 4188   1.377   0.897   2.015
 1040SOL     OW 4189   1.368   1.140   1.869
 1040SOL    HW2 4190   1.383   1.059   1.917
 1040SOL    HW3 4191   1.281   1.169   1.897
 1040SOL    MW4 4192   1.359   1.133   1.879
 1041SOL     OW 4193   1.571   1.305   1.962
 1041SOL    HW2 4194   1.555   1.397   1.940
 1041SOL    HW3 4195   1.491   1.260   1.934
 1041SOL    MW4 4196   1.558   1.311   1.955
 1042SOL     OW 4197   1.570   1.541   1.839
 1042SOL    HW2 4198   1.635   1.606   1.865
 1042SOL    HW3 4199   1.486   1.579   1.866
 1042SOL    MW4 4200   1.568   1.555   1.846
 1043SOL     OW 4201   1.346   1.674   1.941
 1043SOL    HW2 4202   1.333   1.683   2.036
 1043SOL    HW3 4203   1.266   1.633   1.909
 1043SOL    MW4 4204   1.334   1.670   1.950
 1044SOL     OW 4205   1.304   1.939   1.845
 1044SOL    HW2 4206   1.327   1.853   1.879
 1044SOL    HW3 4207   1.237   1.972   1.905
 1044SOL    MW4 4208   1.298   1.932   1.857
 1045SOL     OW 4209   1.508   2.072   1.980
 1045SOL    HW2 4210   1.526   2.152   1.931
 1045SOL    HW3 4211   1.429   2.036   1.940
 1045SOL    MW4 4212   1.500   2.077   1.968
 1046SOL     OW 4213   1.544   2.309   1.848
 1046SOL    HW2 4214   1.636   2.327   1.867
 1046SOL    HW3 4215   1.541   2.301   1.752
 1046SOL    MW4 4216   1.556   2.310   1.838
 1047SOL     OW 4217   1.312   2.431   1.954
 1047SOL    HW2 4218   1.324   2.525   1.937
 1047SOL    HW3 4219   1.397   2.392   1.936
 1047SOL    MW4 4220   1.325   2.438   1.950
 1048SOL     OW 4221   1.321   2.708   1.859
 1048SOL    HW2 4222   1.256   2.766   1.897
 1048SOL    HW3 4223   1.284   2.683   1.774
 1048SOL    MW4 4224   1.308   2.713   1.853
 1049SOL     OW 4225   1.565   2.789   1.942
 1049SOL    HW2 4226   1.649   2.763   1.903
 1049SOL    HW3 4227   1.499   2.757   1.881
 1049SOL    MW4 4228   1.568   2.781   1.929
 1050SOL     OW 4229   1.581   3.076   1.854
 1050SOL    HW2 4230   1.567   2.990   1.894
 1050SOL    HW3 4231   1.560   3.063   1.761
 1050SOL    MW4 4232   1.576   3.063   1.847
 1051SOL     OW 4233   1.385   3.238   2.000
 1051SOL    HW2 4234   1.462   3.190   1.967
 1051SOL    HW3 4235   1.311   3.195   1.957
 1051SOL    MW4 4236   1.385   3.226   1.990
 1052SOL     OW 4237   1.320   3.489   1.903
 1052SOL    HW2 4238   1.328   3.410   1.956
 1052SOL    HW3 4239   1.256   3.543   1.950
 1052SOL    MW4 4240   1.313   3.486   1.916
 1053SOL     OW 4241   1.574   3.600   2.003
 1053SOL    HW2 4242   1.574   3.632   2.093
 1053SOL    HW3 4243   1.482   3.576   1.986
 1053SOL    MW4 4244   1.562   3.601   2.012
 1054SOL     OW 4245   1.565   3.846   1.846
 1054SOL    HW2 4246   1.642   3.893   1.879
 1054SOL    HW3 4247   1.571   3.759   1.886
 1054SOL    MW4 4248   1.576   3.841   1.855
 1055SOL     OW 4249   1.359   3.972   1.967
 1055SOL    HW2 4250   1.437   3.929   1.932
 1055SOL    HW3 4251   1.287   3.912   1.945
 1055SOL    MW4 4252   1.360   3.959   1.959
 1056SOL     OW 4253   1.342   4.252   1.895
 1056SOL    HW2 4254   1.340   4.159   1.916
 1056SOL    HW3 4255   1.362   4.255   1.801
 1056SOL    MW4 4256   1.344   4.240   1.885
 1057SOL     OW 4257   1.582   4.403   1.947
 1057SOL    HW2 4258   1.591   4.409   2.042
 1057SOL    HW3 4259   1.511   4.340   1.933
 1057SOL    MW4 4260   1.574   4.396   1.958
 1058SOL     OW 4261   2.003   4.658   1.840
 1058SOL    HW2 4262   2.082   4.707   1.867
 1058SOL    HW3 4263   1.999   4.585   1.902
 1058SOL    MW4 4264   2.013   4.655   1.852
 1059SOL     OW 4265   1.772   0.108   1.954
 1059SOL    HW2 4266   1.788   0.102   2.049
 1059SOL    HW3 4267   1.852   0.077   1.914
 1059SOL    MW4 4268   1.784   0.103   1.961
 1060SOL     OW 4269   1.792   0.390   1.870
 1060SOL    HW2 4270   1.785   0.303   1.909
 1060SOL    HW3 4271   1.783   0.376   1.776
 1060SOL    MW4 4272   1.790   0.377   1.863
 1061SOL     OW 4273   2.014   0.533   1.974
 1061SOL    HW2 4274   2.010   0.614   1.924
 1061SOL    HW3 4275   1.928   0.492   1.960
 1061SOL    MW4 4276   2.002   0.538   1.966
 1062SOL     OW 4277   2.000   0.783   1.855
 1062SOL    HW2 4278   2.086   0.809   1.888
 1062SOL    HW3 4279   2.017   0.756   1.764
 1062SOL    MW4 4280   2.013   0.783   1.847
 1063SOL     OW 4281   1.805   0.880   2.015
 1063SOL    HW2 4282   1.794   0.969   1.980
 1063SOL    HW3 4283   1.869   0.838   1.958
 1063SOL    MW4 4284   1.812   0.887   2.003
 1064SOL     OW 4285   1.748   1.120   1.894
 1064SOL    HW2 4286   1.683   1.189   1.909
 1064SOL    HW3 4287   1.764   1.123   1.799
 1064SOL    MW4 4288   1.742   1.130   1.883
 1065SOL     OW 4289   1.958   1.276   1.976
 1065SOL    HW2 4290   2.029   1.228   1.932
 1065SOL    HW3 4291   1.878   1.230   1.950
 1065SOL    MW4 4292   1.957   1.264   1.966
 1066SOL     OW 4293   1.966   1.546   1.900
 1066SOL    HW2 4294   1.946   1.456   1.924
 1066SOL    HW3 4295   1.985   1.542   1.806
 1066SOL    MW4 4296   1.965   1.534   1.891
 1067SOL     OW 4297   1.763   1.720   1.936
 1067SOL    HW2 4298   1.794   1.804   1.902
 1067SOL    HW3 4299   1.840   1.663   1.932
 1067SOL    MW4 4300   1.777   1.724   1.931
 1068SOL     OW 4301   1.791   1.975   1.857
 1068SOL    HW2 4302   1.708   1.992   1.902
 1068SOL    HW3 4303   1.766   1.950   1.768
 1068SOL    MW4 4304   1.777   1.974   1.851
 1069SOL     OW 4305   2.013   2.071   1.991
 1069SOL    HW2 4306   2.086   2.031   1.945
 1069SOL    HW3 4307   1.935   2.031   1.952
 1069SOL    MW4 4308   2.012   2.060   1.980
 1070SOL     OW 4309   2.023   2.305   1.853
 1070SOL    HW2 4310   2.105   2.343   1.884
 1070SOL    HW3 4311   2.010   2.227   1.907
 1070SOL    MW4 4312   2.032   2.300   1.864
 1071SOL     OW 4313   1.776   2.425   1.919
 1071SOL    HW2 4314   1.769   2.429   2.014
 1071SOL    HW3 4315   1.862   2.386   1.903
 1071SOL    MW4 4316   1.786   2.420   1.929
 1072SOL     OW 4317   1.823   2.683   1.857
 1072SOL    HW2 4318   1.800   2.598   1.894
 1072SOL    HW3 4319   1.806   2.674   1.763
 1072SOL    MW4 4320   1.818   2.671   1.849
 1073SOL     OW 4321   2.003   2.834   1.980
 1073SOL    HW2 4322   1.990   2.842   2.074
 1073SOL    HW3 4323   1.929   2.780   1.949
 1073SOL    MW4 4324   1.991   2.828   1.988
 1074SOL     OW 4325   2.045   3.077   1.835
 1074SOL    HW2 4326   1.970   3.128   1.867
 1074SOL    HW3 4327   2.039   2.994   1.881
 1074SOL    MW4 4328   2.034   3.073   1.845
 1075SOL     OW 4329   1.827   3.195   1.944
 1075SOL    HW2 4330   1.824   3.202   2.039
 1075SOL    HW3 4331   1.743   3.156   1.921
 1075SOL    MW4 4332   1.815   3.191   1.953
 1076SOL     OW 4333   1.760   3.466   1.842
 1076SOL    HW2 4334   1.789   3.385   1.885
 1076SOL    HW3 4335   1.699   3.505   1.905
 1076SOL    MW4 4336   1.756   3.460   1.856
 1077SOL     OW 4337   1.993   3.583   1.955
 1077SOL    HW2 4338   1.997   3.677   1.938
 1077SOL    HW3 4339   1.916   3.554   1.908
 1077SOL    MW4 4340   1.984   3.592   1.947
 1078SOL     OW 4341   2.007   3.856   1.901
 1078SOL    HW2 4342   2.083   3.910   1.925
 1078SOL    HW3 4343   1.992   3.876   1.809
 1078SOL    MW4 4344   2.015   3.866   1.892
 1079SOL     OW 4345   1.762   3.973   1.979
 1079SOL    HW2 4346   1.770   4.065   1.952
 1079SOL    HW3 4347   1.850   3.937   1.965
 1079SOL    MW4 4348   1.775   3.980   1.974
 1080SOL     OW 4349   1.784   4.240   1.869
 1080SOL    HW2 4350   1.714   4.300   1.893
 1080SOL    HW3 4351   1.782   4.239   1.773
 1080SOL    MW4 4352   1.774   4.248   1.860
 1081SOL     OW 4353   1.989   4.407   1.963
 1081SOL    HW2 4354   2.077   4.379   1.936
 1081SOL    HW3 4355   1.930   4.341   1.925
 1081SOL    MW4 4356   1.993   4.394   1.954
 1082SOL     OW 4357   2.487   4.660   1.838
 1082SOL    HW2 4358   2.552   4.694   1.900
 1082SOL    HW3 4359   2.465   4.573   1.871
 1082SOL    MW4 4360   2.493   4.653   1.851
 1083SOL     OW 4361   2.237   0.129   1.912
 1083SOL    HW2 4362   2.243   0.119   2.007
 1083SOL    HW3 4363   2.318   0.090   1.879
 1083SOL    MW4 4364   2.248   0.123   1.920
 1084SOL     OW 4365   2.227   0.409   1.839
 1084SOL    HW2 4366   2.230   0.317   1.864
 1084SOL    HW3 4367   2.146   0.442   1.878
 1084SOL    MW4 4368   2.217   0.401   1.847
 1085SOL     OW 4369   2.465   0.509   1.971
 1085SOL    HW2 4370   2.533   0.480   1.909
 1085SOL    HW3 4371   2.385   0.468   1.939
 1085SOL    MW4 4372   2.464   0.500   1.959
 1086SOL     OW 4373   2.483   0.770   1.866
 1086SOL    HW2 4374   2.472   0.685   1.908
 1086SOL    HW3 4375   2.489   0.751   1.773
 1086SOL    MW4 4376   2.483   0.757   1.860
 1087SOL     OW 4377   2.258   0.913   1.960
 1087SOL    HW2 4378   2.256   0.892   2.053
 1087SOL    HW3 4379   2.328   0.859   1.925
 1087SOL    MW4 4380   2.267   0.903   1.968
 1088SOL     OW 4381   2.240   1.169   1.899
 1088SOL    HW2 4382   2.321   1.203   1.937
 1088SOL    HW3 4383   2.234   1.079   1.930
 1088SOL    MW4 4384   2.250   1.162   1.908
 1089SOL     OW 4385   2.481   1.299   1.980
 1089SOL    HW2 4386   2.447   1.301   2.070
 1089SOL    HW3 4387   2.482   1.391   1.953
 1089SOL    MW4 4388   2.476   1.311   1.988
 1090SOL     OW 4389   2.467   1.563   1.893
 1090SOL    HW2 4390   2.391   1.603   1.936
 1090SOL    HW3 4391   2.450   1.574   1.799
 1090SOL    MW4 4392   2.455   1.569   1.886
 1091SOL     OW 4393   2.203   1.675   1.946
 1091SOL    HW2 4394   2.194   1.694   2.040
 1091SOL    HW3 4395   2.124   1.626   1.923
 1091SOL    MW4 4396   2.192   1.671   1.956
 1092SOL     OW 4397   2.232   1.928   1.864
 1092SOL    HW2 4398   2.308   1.964   1.910
 1092SOL    HW3 4399   2.230   1.836   1.890
 1092SOL    MW4 4400   2.242   1.921   1.874
 1093SOL     OW 4401   2.462   2.049   1.956
 1093SOL    HW2 4402   2.541   2.005   1.923
 1093SOL    HW3 4403   2.460   2.132   1.910
 1093SOL    MW4 4404   2.472   2.054   1.946
 1094SOL     OW 4405   2.466   2.292   1.844
 1094SOL    HW2 4406   2.546   2.339   1.867
 1094SOL    HW3 4407   2.395   2.344   1.881
 1094SOL    MW4 4408   2.467   2.305   1.852
 1095SOL     OW 4409   2.253   2.422   1.947
 1095SOL    HW2 4410   2.235   2.429   2.041
 1095SOL    HW3 4411   2.248   2.512   1.915
 1095SOL    MW4 4412   2.250   2.435   1.955
 1096SOL     OW 4413   2.217   2.689   1.834
 1096SOL    HW2 4414   2.156   2.747   1.879
 1096SOL    HW3 4415   2.194   2.696   1.742
 1096SOL    MW4 4416   2.206   2.698   1.828
 1097SOL     OW 4417   2.454   2.785   1.972
 1097SOL    HW2 4418   2.464   2.873   1.936
 1097SOL    HW3 4419   2.376   2.749   1.928
 1097SOL    MW4 4420   2.445   2.792   1.962
 1098SOL     OW 4421   2.454   3.061   1.872
 1098SOL    HW2 4422   2.383   3.118   1.899
 1098SOL    HW3 4423   2.450   3.060   1.776
 1098SOL    MW4 4424   2.444   3.068   1.863
 1099SOL     OW 4425   2.245   3.235   1.924
 1099SOL    HW2 4426   2.221   3.241   2.017
 1099SOL    HW3 4427   2.190   3.165   1.890
 1099SOL    MW4 4428   2.235   3.226   1.932
 1100SOL     OW 4429   2.223   3.482   1.838
 1100SOL    HW2 4430   2.223   3.390   1.866
 1100SOL    HW3 4431   2.144   3.519   1.879
 1100SOL    MW4 4432   2.212   3.475   1.847
 1101SOL     OW 4433   2.457   3.590   1.915
 1101SOL    HW2 4434   2.442   3.588   2.009
 1101SOL    HW3 4435   2.383   3.544   1.877
 1101SOL    MW4 4436   2.445   3.584   1.922
 1102SOL     OW 4437   2.440   3.872   1.841
 1102SOL    HW2 4438   2.371   3.920   1.887
 1102SOL    HW3 4439   2.426   3.780   1.866
 1102SOL    MW4 4440   2.429   3.866   1.850
 1103SOL     OW 4441   2.234   4.007   1.975
 1103SOL    HW2 4442   2.249   4.022   2.068
 1103SOL    HW3 4443   2.207   4.092   1.941
 1103SOL    MW4 4444   2.233   4.020   1.982
 1104SOL     OW 4445   2.213   4.262   1.867
 1104SOL    HW2 4446   2.303   4.288   1.888
 1104SOL    HW3 4447   2.214   4.249   1.772
 1104SOL    MW4 4448   2.225   4.264   1.857
 1105SOL     OW 4449   2.454   4.407   1.940
 1105SOL    HW2 4450   2.472   4.412   2.033
 1105SOL    HW3 4451   2.529   4.358   1.904
 1105SOL    MW4 4452   2.466   4.401   1.947
 1106SOL     OW 4453   2.942   4.662   1.858
 1106SOL    HW2 4454   3.002   4.711   1.914
 1106SOL    HW3 4455   2.944   4.573   1.893
 1106SOL    MW4 4456   2.950   4.657   1.870
 1107SOL     OW 4457   2.720   0.128   1.947
 1107SOL    HW2 4458   2.728   0.132   2.042
 1107SOL    HW3 4459   2.799   0.081   1.918
 1107SOL    MW4 4460   2.732   0.122   1.955
 1108SOL     OW 4461   2.672   0.399   1.838
 1108SOL    HW2 4462   2.736   0.451   1.886
 1108SOL    HW3 4463   2.683   0.310   1.870
 1108SOL    MW4 4464   2.682   0.394   1.848
 1109SOL     OW 4465   2.896   0.513   1.953
 1109SOL    HW2 4466   2.973   0.465   1.925
 1109SOL    HW3 4467   2.903   0.598   1.910
 1109SOL    MW4 4468   2.907   0.518   1.944
 1110SOL     OW 4469   2.942   0.792   1.833
 1110SOL    HW2 4470   3.025   0.807   1.879
 1110SOL    HW3 4471   2.875   0.829   1.891
 1110SOL    MW4 4472   2.944   0.799   1.847
 1111SOL     OW 4473   2.722   0.875   1.993
 1111SOL    HW2 4474   2.700   0.966   1.974
 1111SOL    HW3 4475   2.646   0.825   1.963
 1111SOL    MW4 4476   2.709   0.881   1.987
 1112SOL     OW 4477   2.693   1.140   1.902
 1112SOL    HW2 4478   2.617   1.191   1.929
 1112SOL    HW3 4479   2.688   1.137   1.806
 1112SOL    MW4 4480   2.682   1.146   1.893
 1113SOL     OW 4481   2.930   1.287   1.993
 1113SOL    HW2 4482   2.933   1.369   1.943
 1113SOL    HW3 4483   2.858   1.237   1.953
 1113SOL    MW4 4484   2.921   1.291   1.981
 1114SOL     OW 4485   2.905   1.514   1.828
 1114SOL    HW2 4486   2.988   1.551   1.859
 1114SOL    HW3 4487   2.904   1.532   1.734
 1114SOL    MW4 4488   2.916   1.522   1.820
 1115SOL     OW 4489   2.711   1.678   1.962
 1115SOL    HW2 4490   2.781   1.621   1.931
 1115SOL    HW3 4491   2.630   1.637   1.930
 1115SOL    MW4 4492   2.709   1.665   1.954
 1116SOL     OW 4493   2.695   1.938   1.870
 1116SOL    HW2 4494   2.755   1.987   1.927
 1116SOL    HW3 4495   2.711   1.846   1.892
 1116SOL    MW4 4496   2.705   1.933   1.880
 1117SOL     OW 4497   2.890   2.077   1.999
 1117SOL    HW2 4498   2.882   2.076   2.095
 1117SOL    HW3 4499   2.971   2.029   1.981
 1117SOL    MW4 4500   2.900   2.071   2.009
 1118SOL     OW 4501   2.927   2.294   1.832
 1118SOL    HW2 4502   3.005   2.343   1.857
 1118SOL    HW3 4503   2.922   2.222   1.895
 1118SOL    MW4 4504   2.937   2.291   1.844
 1119SOL     OW 4505   2.710   2.430   1.956
 1119SOL    HW2 4506   2.708   2.523   1.931
 1119SOL    HW3 4507   2.793   2.398   1.921
 1119SOL    MW4 4508   2.720   2.438   1.948
 1120SOL     OW 4509   2.682   2.674   1.860
 1120SOL    HW2 4510   2.602   2.702   1.906
 1120SOL    HW3 4511   2.662   2.689   1.767
 1120SOL    MW4 4512   2.669   2.680   1.854
 1121SOL     OW 4513   2.918   2.797   1.976
 1121SOL    HW2 4514   2.928   2.883   1.935
 1121SOL    HW3 4515   2.845   2.756   1.929
 1121SOL    MW4 4516   2.910   2.803   1.965
 1122SOL     OW 4517   2.944   3.049   1.829
 1122SOL    HW2 4518   3.004   3.108   1.873
 1122SOL    HW3 4519   2.857   3.074   1.862
 1122SOL    MW4 4520   2.940   3.060   1.839
 1123SOL     OW 4521   2.705   3.144   1.939
 1123SOL    HW2 4522   2.692   3.239   1.934
 1123SOL    HW3 4523   2.623   3.107   1.907
 1123SOL    MW4 4524   2.693   3.152   1.934
 1124SOL     OW 4525   2.684   3.439   1.869
 1124SOL    HW2 4526   2.765   3.490   1.879
 1124SOL    HW3 4527   2.615   3.500   1.893
 1124SOL    MW4 4528   2.686   3.454   1.873
 1125SOL     OW 4529   2.891   3.601   1.954
 1125SOL    HW2 4530   2.897   3.601   2.049
 1125SOL    HW3 4531   2.967   3.551   1.925
 1125SOL    MW4 4532   2.902   3.594   1.963
 1126SOL     OW 4533   2.884   3.871   1.909
 1126SOL    HW2 4534   2.890   3.778   1.933
 1126SOL    HW3 4535   2.896   3.872   1.815
 1126SOL    MW4 4536   2.886   3.859   1.900
 1127SOL     OW 4537   2.650   4.023   1.975
 1127SOL    HW2 4538   2.711   3.952   1.955
 1127SOL    HW3 4539   2.563   3.983   1.968
 1127SOL    MW4 4540   2.646   4.008   1.971
 1128SOL     OW 4541   2.685   4.275   1.846
 1128SOL    HW2 4542   2.693   4.197   1.901
 1128SOL    HW3 4543   2.674   4.241   1.757
 1128SOL    MW4 4544   2.684   4.260   1.842
 1129SOL     OW 4545   2.905   4.397   1.985
 1129SOL    HW2 4546   2.894   4.383   2.079
 1129SOL    HW3 4547   2.817   4.389   1.949
 1129SOL    MW4 4548   2.892   4.394   1.992
 1130SOL     OW 4549   3.351   4.632   1.887
 1130SOL    HW2 4550   3.360   4.541   1.915
 1130SOL    HW3 4551   3.363   4.629   1.792
 1130SOL    MW4 4552   3.354   4.620   1.878
 1131SOL     OW 4553   3.161   0.143   1.979
 1131SOL    HW2 4554   3.152   0.118   2.071
 1131SOL    HW3 4555   3.215   0.074   1.941
 1131SOL    MW4 4556   3.167   0.131   1.986
 1132SOL     OW 4557   3.129   0.386   1.862
 1132SOL    HW2 4558   3.151   0.307   1.912
 1132SOL    HW3 4559   3.153   0.365   1.772
 1132SOL    MW4 4560   3.135   0.373   1.857
 1133SOL     OW 4561   3.355   0.509   1.980
 1133SOL    HW2 4562   3.422   0.455   1.938
 1133SOL    HW3 4563   3.272   0.471   1.952
 1133SOL    MW4 4564   3.353   0.497   1.971
 1134SOL     OW 4565   3.400   0.751   1.872
 1134SOL    HW2 4566   3.319   0.793   1.902
 1134SOL    HW3 4567   3.399   0.665   1.915
 1134SOL    MW4 4568   3.389   0.745   1.882
 1135SOL     OW 4569   3.163   0.877   1.959
 1135SOL    HW2 4570   3.146   0.883   2.053
 1135SOL    HW3 4571   3.144   0.965   1.925
 1135SOL    MW4 4572   3.158   0.889   1.967
 1136SOL     OW 4573   3.124   1.145   1.882
 1136SOL    HW2 4574   3.200   1.181   1.927
 1136SOL    HW3 4575   3.049   1.190   1.922
 1136SOL    MW4 4576   3.124   1.156   1.893
 1137SOL     OW 4577   3.371   1.287   1.978
 1137SOL    HW2 4578   3.358   1.296   2.072
 1137SOL    HW3 4579   3.364   1.376   1.944
 1137SOL    MW4 4580   3.368   1.300   1.986
 1138SOL     OW 4581   3.353   1.529   1.850
 1138SOL    HW2 4582   3.432   1.569   1.888
 1138SOL    HW3 4583   3.283   1.591   1.870
 1138SOL    MW4 4584   3.354   1.542   1.858
 1139SOL     OW 4585   3.114   1.676   1.927
 1139SOL    HW2 4586   3.116   1.684   2.023
 1139SOL    HW3 4587   3.113   1.766   1.895
 1139SOL    MW4 4588   3.114   1.689   1.936
 1140SOL     OW 4589   3.136   1.940   1.886
 1140SOL    HW2 4590   3.217   1.973   1.925
 1140SOL    HW3 4591   3.137   1.973   1.796
 1140SOL    MW4 4592   3.147   1.949   1.879
 1141SOL     OW 4593   3.379   2.038   1.988
 1141SOL    HW2 4594   3.442   1.982   1.942
 1141SOL    HW3 4595   3.391   2.124   1.949
 1141SOL    MW4 4596   3.389   2.042   1.977
 1142SOL     OW 4597   3.380   2.273   1.842
 1142SOL    HW2 4598   3.301   2.313   1.877
 1142SOL    HW3 4599   3.372   2.284   1.747
 1142SOL    MW4 4600   3.369   2.280   1.834
 1143SOL     OW 4601   3.157   2.409   1.918
 1143SOL    HW2 4602   3.145   2.422   2.012
 1143SOL    HW3 4603   3.153   2.498   1.881
 1143SOL    MW4 4604   3.155   2.423   1.925
 1144SOL     OW 4605   3.148   2.687   1.871
 1144SOL    HW2 4606   3.064   2.721   1.900
 1144SOL    HW3 4607   3.148   2.700   1.776
 1144SOL    MW4 4608   3.137   2.693   1.863
 1145SOL     OW 4609   3.359   2.862   1.933
 1145SOL    HW2 4610   3.377   2.855   2.027
 1145SOL    HW3 4611   3.279   2.811   1.920
 1145SOL    MW4 4612   3.351   2.855   1.944
 1146SOL     OW 4613   3.324   3.136   1.840
 1146SOL    HW2 4614   3.399   3.179   1.882
 1146SOL    HW3 4615   3.339   3.043   1.853
 1146SOL    MW4 4616   3.336   3.130   1.847
 1147SOL     OW 4617   3.109   3.238   1.970
 1147SOL    HW2 4618   3.110   3.328   1.937
 1147SOL    HW3 4619   3.187   3.198   1.931
 1147SOL    MW4 4620   3.119   3.245   1.960
 1148SOL     OW 4621   3.135   3.484   1.869
 1148SOL    HW2 4622   3.189   3.531   1.932
 1148SOL    HW3 4623   3.171   3.508   1.784
 1148SOL    MW4 4624   3.146   3.493   1.866
 1149SOL     OW 4625   3.317   3.618   2.035
 1149SOL    HW2 4626   3.392   3.571   2.000
 1149SOL    HW3 4627   3.328   3.708   2.004
 1149SOL    MW4 4628   3.328   3.624   2.026
 1150SOL     OW 4629   3.361   3.872   1.895
 1150SOL    HW2 4630   3.291   3.937   1.897
 1150SOL    HW3 4631   3.392   3.873   1.804
 1150SOL    MW4 4632   3.356   3.881   1.883
 1151SOL     OW 4633   3.129   4.014   1.959
 1151SOL    HW2 4634   3.134   4.018   2.055
 1151SOL    HW3 4635   3.049   3.965   1.942
 1151SOL    MW4 4636   3.119   4.008   1.970
 1152SOL     OW 4637   3.138   4.273   1.865
 1152SOL    HW2 4638   3.139   4.187   1.908
 1152SOL    HW3 4639   3.076   4.324   1.916
 1152SOL    MW4 4640   3.130   4.268   1.877
 1153SOL     OW 4641   3.372   4.377   1.962
 1153SOL    HW2 4642   3.438   4.331   1.910
 1153SOL    HW3 4643   3.290   4.336   1.938
 1153SOL    MW4 4644   3.370   4.365   1.952
 1154SOL     OW 4645   3.803   4.645   1.857
 1154SOL    HW2 4646   3.808   4.554   1.886
 1154SOL    HW3 4647   3.739   4.686   1.915
 1154SOL    MW4 4648   3.795   4.639   1.868
 1155SOL     OW 4649   3.594   0.113   1.975
 1155SOL    HW2 4650   3.608   0.101   2.069
 1155SOL    HW3 4651   3.517   0.059   1.955
 1155SOL    MW4 4652   3.586   0.104   1.985
 1156SOL     OW 4653   3.593   0.390   1.892
 1156SOL    HW2 4654   3.601   0.300   1.922
 1156SOL    HW3 4655   3.586   0.383   1.797
 1156SOL    MW4 4656   3.593   0.377   1.883
 1157SOL     OW 4657   3.840   0.480   2.043
 1157SOL    HW2 4658   3.834   0.574   2.025
 1157SOL    HW3 4659   3.763   0.443   1.999
 1157SOL    MW4 4660   3.829   0.488   2.035
 1158SOL     OW 4661   3.858   0.734   1.924
 1158SOL    HW2 4662   3.780   0.783   1.952
 1158SOL    HW3 4663   3.854   0.738   1.828
 1158SOL    MW4 4664   3.847   0.741   1.915
 1159SOL     OW 4665   3.622   0.903   1.987
 1159SOL    HW2 4666   3.610   0.988   1.946
 1159SOL    HW3 4667   3.555   0.847   1.947
 1159SOL    MW4 4668   3.611   0.907   1.976
 1160SOL     OW 4669   3.603   1.167   1.887
 1160SOL    HW2 4670   3.531   1.221   1.917
 1160SOL    HW3 4671   3.590   1.160   1.792
 1160SOL    MW4 4672   3.592   1.173   1.878
 1161SOL     OW 4673   3.822   1.282   1.990
 1161SOL    HW2 4674   3.805   1.284   2.084
 1161SOL    HW3 4675   3.742   1.246   1.951
 1161SOL    MW4 4676   3.809   1.278   1.997
 1162SOL     OW 4677   3.827   1.521   1.844
 1162SOL    HW2 4678   3.894   1.570   1.893
 1162SOL    HW3 4679   3.824   1.436   1.888
 1162SOL    MW4 4680   3.835   1.516   1.856
 1163SOL     OW 4681   3.583   1.625   1.938
 1163SOL    HW2 4682   3.585   1.719   1.919
 1163SOL    HW3 4683   3.664   1.591   1.901
 1163SOL    MW4 4684   3.594   1.633   1.931
 1164SOL     OW 4685   3.593   1.890   1.866
 1164SOL    HW2 4686   3.665   1.946   1.896
 1164SOL    HW3 4687   3.595   1.896   1.771
 1164SOL    MW4 4688   3.603   1.898   1.858
 1165SOL     OW 4689   3.820   2.019   1.955
 1165SOL    HW2 4690   3.900   1.985   1.915
 1165SOL    HW3 4691   3.807   2.105   1.914
 1165SOL    MW4 4692   3.829   2.026   1.944
 1166SOL     OW 4693   3.814   2.275   1.821
 1166SOL    HW2 4694   3.885   2.326   1.862
 1166SOL    HW3 4695   3.734   2.311   1.859
 1166SOL    MW4 4696   3.813   2.287   1.832
 1167SOL     OW 4697   3.602   2.411   1.923
 1167SOL    HW2 4698   3.605   2.504   1.899
 1167SOL    HW3 4699   3.517   2.381   1.892
 1167SOL    MW4 4700   3.591   2.420   1.916
 1168SOL     OW 4701   3.585   2.686   1.857
 1168SOL    HW2 4702   3.655   2.728   1.907
 1168SOL    HW3 4703   3.506   2.733   1.884
 1168SOL    MW4 4704   3.584   2.698   1.867
 1169SOL     OW 4705   3.794   2.819   1.996
 1169SOL    HW2 4706   3.790   2.814   2.091
 1169SOL    HW3 4707   3.784   2.912   1.976
 1169SOL    MW4 4708   3.792   2.830   2.006
 1170SOL     OW 4709   3.770   3.066   1.882
 1170SOL    HW2 4710   3.698   3.128   1.892
 1170SOL    HW3 4711   3.787   3.065   1.787
 1170SOL    MW4 4712   3.763   3.074   1.871
 1171SOL     OW 4713   3.565   3.225   1.946
 1171SOL    HW2 4714   3.581   3.215   2.040
 1171SOL    HW3 4715   3.548   3.319   1.935
 1171SOL    MW4 4716   3.565   3.236   1.957
 1172SOL     OW 4717   3.514   3.506   1.881
 1172SOL    HW2 4718   3.595   3.544   1.914
 1172SOL    HW3 4719   3.525   3.503   1.786
 1172SOL    MW4 4720   3.526   3.510   1.872
 1173SOL     OW 4721   3.763   3.607   1.985
 1173SOL    HW2 4722   3.834   3.555   1.948
 1173SOL    HW3 4723   3.774   3.694   1.947
 1173SOL    MW4 4724   3.774   3.612   1.975
 1174SOL     OW 4725   3.799   3.866   1.888
 1174SOL    HW2 4726   3.720   3.915   1.912
 1174SOL    HW3 4727   3.806   3.878   1.793
 1174SOL    MW4 4728   3.789   3.874   1.878
 1175SOL     OW 4729   3.577   4.012   1.968
 1175SOL    HW2 4730   3.572   4.041   2.059
 1175SOL    HW3 4731   3.499   3.959   1.956
 1175SOL    MW4 4732   3.566   4.009   1.979
 1176SOL     OW 4733   3.607   4.246   1.838
 1176SOL    HW2 4734   3.688   4.285   1.870
 1176SOL    HW3 4735   3.595   4.168   1.892
 1176SOL    MW4 4736   3.616   4.241   1.849
 1177SOL     OW 4737   3.839   4.370   1.932
 1177SOL    HW2 4738   3.834   4.368   2.028
 1177SOL    HW3 4739   3.919   4.323   1.911
 1177SOL    MW4 4740   3.849   4.364   1.942
 1178SOL     OW 4741   4.255   4.647   1.879
 1178SOL    HW2 4742   4.184   4.700   1.916
 1178SOL    HW3 4743   4.334   4.677   1.924
 1178SOL    MW4 4744   4.256   4.658   1.890
 1179SOL     OW 4745   4.028   0.075   2.017
 1179SOL    HW2 4746   4.011   0.077   2.112
 1179SOL    HW3 4747   3.955   0.024   1.981
 1179SOL    MW4 4748   4.016   0.069   2.025
 1180SOL     OW 4749   4.037   0.351   1.903
 1180SOL    HW2 4750   4.038   0.258   1.926
 1180SOL    HW3 4751   3.961   0.386   1.949
 1180SOL    MW4 4752   4.027   0.343   1.912
 1181SOL     OW 4753   4.265   0.473   1.984
 1181SOL    HW2 4754   4.271   0.485   2.079
 1181SOL    HW3 4755   4.188   0.419   1.971
 1181SOL    MW4 4756   4.256   0.468   1.995
 1182SOL     OW 4757   4.244   0.730   1.871
 1182SOL    HW2 4758   4.241   0.639   1.903
 1182SOL    HW3 4759   4.238   0.722   1.776
 1182SOL    MW4 4760   4.243   0.717   1.862
 1183SOL     OW 4761   4.072   0.904   2.001
 1183SOL    HW2 4762   4.132   0.860   1.940
 1183SOL    HW3 4763   3.992   0.851   1.998
 1183SOL    MW4 4764   4.069   0.891   1.992
 1184SOL     OW 4765   4.055   1.157   1.887
 1184SOL    HW2 4766   4.061   1.070   1.925
 1184SOL    HW3 4767   3.981   1.198   1.932
 1184SOL    MW4 4768   4.046   1.151   1.898
 1185SOL     OW 4769   4.295   1.249   1.979
 1185SOL    HW2 4770   4.284   1.265   2.073
 1185SOL    HW3 4771   4.207   1.229   1.948
 1185SOL    MW4 4772   4.282   1.248   1.987
 1186SOL     OW 4773   4.291   1.516   1.899
 1186SOL    HW2 4774   4.288   1.422   1.917
 1186SOL    HW3 4775   4.315   1.521   1.806
 1186SOL    MW4 4776   4.294   1.504   1.889
 1187SOL     OW 4777   4.056   1.646   1.954
 1187SOL    HW2 4778   4.046   1.632   2.048
 1187SOL    HW3 4779   4.136   1.597   1.932
 1187SOL    MW4 4780   4.065   1.638   1.964
 1188SOL     OW 4781   4.054   1.900   1.844
 1188SOL    HW2 4782   4.057   1.807   1.867
 1188SOL    HW3 4783   4.079   1.903   1.752
 1188SOL    MW4 4784   4.058   1.888   1.835
 1189SOL     OW 4785   4.236   2.078   1.964
 1189SOL    HW2 4786   4.248   2.059   2.057
 1189SOL    HW3 4787   4.172   2.014   1.934
 1189SOL    MW4 4788   4.229   2.067   1.973
 1190SOL     OW 4789   4.260   2.342   1.868
 1190SOL    HW2 4790   4.248   2.258   1.912
 1190SOL    HW3 4791   4.343   2.376   1.902
 1190SOL    MW4 4792   4.269   2.336   1.878
 1191SOL     OW 4793   4.000   2.431   1.931
 1191SOL    HW2 4794   3.996   2.432   2.026
 1191SOL    HW3 4795   4.092   2.415   1.911
 1191SOL    MW4 4796   4.011   2.429   1.941
 1192SOL     OW 4797   4.006   2.690   1.860
 1192SOL    HW2 4798   4.001   2.599   1.890
 1192SOL    HW3 4799   3.926   2.731   1.892
 1192SOL    MW4 4800   3.995   2.683   1.868
 1193SOL     OW 4801   4.226   2.834   1.955
 1193SOL    HW2 4802   4.244   2.819   2.048
 1193SOL    HW3 4803   4.144   2.789   1.938
 1193SOL    MW4 4804   4.218   2.826   1.965
 1194SOL     OW 4805   4.255   3.092   1.845
 1194SOL    HW2 4806   4.177   3.142   1.871
 1194SOL    HW3 4807   4.247   3.010   1.893
 1194SOL    MW4 4808   4.243   3.088   1.855
 1195SOL     OW 4809   4.006   3.220   1.942
 1195SOL    HW2 4810   4.003   3.211   2.037
 1195SOL    HW3 4811   3.935   3.164   1.910
 1195SOL    MW4 4812   3.996   3.211   1.950
 1196SOL     OW 4813   4.024   3.478   1.881
 1196SOL    HW2 4814   4.096   3.518   1.929
 1196SOL    HW3 4815   4.022   3.388   1.911
 1196SOL    MW4 4816   4.033   3.472   1.891
 1197SOL     OW 4817   4.255   3.592   1.985
 1197SOL    HW2 4818   4.269   3.676   1.942
 1197SOL    HW3 4819   4.332   3.540   1.962
 1197SOL    MW4 4820   4.267   3.596   1.976
 1198SOL     OW 4821   4.253   3.859   1.877
 1198SOL    HW2 4822   4.322   3.910   1.920
 1198SOL    HW3 4823   4.272   3.867   1.784
 1198SOL    MW4 4824   4.265   3.867   1.870
 1199SOL     OW 4825   4.030   3.994   1.953
 1199SOL    HW2 4826   4.107   3.943   1.925
 1199SOL    HW3 4827   3.956   3.936   1.937
 1199SOL    MW4 4828   4.031   3.979   1.947
 1200SOL     OW 4829   4.056   4.240   1.833
 1200SOL    HW2 4830   4.136   4.286   1.861
 1200SOL    HW3 4831   4.060   4.156   1.879
 1200SOL    MW4 4832   4.067   4.235   1.843
 1201SOL     OW 4833   4.261   4.382   1.946
 1201SOL    HW2 4834   4.250   4.389   2.041
 1201SOL    HW3 4835   4.268   4.472   1.916
 1201SOL    MW4 4836   4.261   4.395   1.955
 1202SOL     OW 4837   0.206   4.623   2.341
 1202SOL    HW2 4838   0.219   4.617   2.436
 1202SOL    HW3 4839   0.286   4.666   2.310
 1202SOL    MW4 4840   0.218   4.628   2.350
 1203SOL     OW 4841   4.474   0.099   2.253
 1203SOL    HW2 4842   4.552   0.055   2.290
 1203SOL    HW3 4843   4.477   0.078   2.160
 1203SOL    MW4 4844   4.485   0.090   2.246
 1204SOL     OW 4845   4.484   0.358   2.374
 1204SOL    HW2 4846   4.555   0.405   2.330
 1204SOL    HW3 4847   4.476   0.276   2.326
 1204SOL    MW4 4848   4.493   0.354   2.362
 1205SOL     OW 4849   0.200   0.486   2.236
 1205SOL    HW2 4850   0.283   0.449   2.264
 1205SOL    HW3 4851   0.199   0.473   2.141
 1205SOL    MW4 4852   0.211   0.479   2.227
 1206SOL     OW 4853   0.229   0.736   2.356
 1206SOL    HW2 4854   0.229   0.731   2.451
 1206SOL    HW3 4855   0.219   0.645   2.327
 1206SOL    MW4 4856   0.227   0.723   2.365
 1207SOL     OW 4857   0.015   0.880   2.257
 1207SOL    HW2 4858   0.090   0.825   2.280
 1207SOL    HW3 4859   0.000   0.862   2.164
 1207SOL    MW4 4860   0.023   0.870   2.248
 1208SOL     OW 4861   4.490   1.165   2.357
 1208SOL    HW2 4862   4.481   1.155   2.451
 1208SOL    HW3 4863   4.512   1.078   2.325
 1208SOL    MW4 4864   4.492   1.152   2.365
 1209SOL     OW 4865   0.251   1.260   2.277
 1209SOL    HW2 4866   0.164   1.239   2.312
 1209SOL    HW3 4867   0.235   1.273   2.183
 1209SOL    MW4 4868   0.237   1.259   2.269
 1210SOL     OW 4869   0.215   1.533   2.352
 1210SOL    HW2 4870   0.205   1.528   2.447
 1210SOL    HW3 4871   0.221   1.441   2.324
 1210SOL    MW4 4872   0.214   1.520   2.361
 1211SOL     OW 4873   0.004   1.687   2.242
 1211SOL    HW2 4874   0.020   1.770   2.287
 1211SOL    HW3 4875   0.080   1.632   2.265
 1211SOL    MW4 4876   0.016   1.691   2.251
 1212SOL     OW 4877   4.470   1.935   2.372
 1212SOL    HW2 4878   4.402   1.978   2.321
 1212SOL    HW3 4879   4.551   1.979   2.346
 1212SOL    MW4 4880   4.471   1.946   2.362
 1213SOL     OW 4881   0.234   2.047   2.272
 1213SOL    HW2 4882   0.311   1.999   2.302
 1213SOL    HW3 4883   0.233   2.033   2.177
 1213SOL    MW4 4884   0.244   2.039   2.263
 1214SOL     OW 4885   0.213   2.342   2.341
 1214SOL    HW2 4886   0.222   2.348   2.436
 1214SOL    HW3 4887   0.219   2.248   2.322
 1214SOL    MW4 4888   0.215   2.330   2.351
 1215SOL     OW 4889   4.466   2.441   2.226
 1215SOL    HW2 4890   4.445   2.520   2.275
 1215SOL    HW3 4891   4.540   2.402   2.274
 1215SOL    MW4 4892   4.473   2.446   2.239
 1216SOL     OW 4893   4.418   2.694   2.366
 1216SOL    HW2 4894   4.431   2.674   2.459
 1216SOL    HW3 4895   4.504   2.722   2.336
 1216SOL    MW4 4896   4.431   2.695   2.375
 1217SOL     OW 4897   0.179   2.800   2.304
 1217SOL    HW2 4898   0.266   2.764   2.320
 1217SOL    HW3 4899   0.175   2.816   2.210
 1217SOL    MW4 4900   0.190   2.797   2.294
 1218SOL     OW 4901   0.218   3.095   2.399
 1218SOL    HW2 4902   0.134   3.123   2.363
 1218SOL    HW3 4903   0.228   3.004   2.370
 1218SOL    MW4 4904   0.208   3.087   2.390
 1219SOL     OW 4905   4.475   3.189   2.263
 1219SOL    HW2 4906   4.477   3.280   2.291
 1219SOL    HW3 4907   4.492   3.192   2.169
 1219SOL    MW4 4908   4.477   3.201   2.254
 1220SOL     OW 4909   4.460   3.442   2.354
 1220SOL    HW2 4910   4.461   3.468   2.446
 1220SOL    HW3 4911   4.402   3.506   2.312
 1220SOL    MW4 4912   4.452   3.454   2.361
 1221SOL     OW 4913   0.188   3.585   2.257
 1221SOL    HW2 4914   0.271   3.549   2.287
 1221SOL    HW3 4915   0.121   3.525   2.289
 1221SOL    MW4 4916   0.190   3.573   2.265
 1222SOL     OW 4917   0.197   3.854   2.359
 1222SOL    HW2 4918   0.116   3.897   2.332
 1222SOL    HW3 4919   0.187   3.764   2.329
 1222SOL    MW4 4920   0.185   3.848   2.351
 1223SOL     OW 4921   4.487   3.996   2.248
 1223SOL    HW2 4922   4.491   4.087   2.276
 1223SOL    HW3 4923   4.495   4.000   2.153
 1223SOL    MW4 4924   4.488   4.008   2.239
 1224SOL     OW 4925   4.459   4.280   2.295
 1224SOL    HW2 4926   4.446   4.292   2.389
 1224SOL    HW3 4927   4.548   4.311   2.279
 1224SOL    MW4 4928   4.469   4.286   2.305
 1225SOL     OW 4929   0.237   4.374   2.239
 1225SOL    HW2 4930   0.319   4.339   2.274
 1225SOL    HW3 4931   0.229   4.461   2.278
 1225SOL    MW4 4932   0.247   4.381   2.248
 1226SOL     OW 4933   0.635   4.640   2.354
 1226SOL    HW2 4934   0.645   4.621   2.447
 1226SOL    HW3 4935   0.716   4.684   2.329
 1226SOL    MW4 4936   0.647   4.644   2.363
 1227SOL     OW 4937   0.421   0.129   2.233
 1227SOL    HW2 4938   0.499   0.087   2.268
 1227SOL    HW3 4939   0.431   0.124   2.138
 1227SOL    MW4 4940   0.433   0.123   2.225
 1228SOL     OW 4941   0.429   0.379   2.351
 1228SOL    HW2 4942   0.410   0.372   2.445
 1228SOL    HW3 4943   0.414   0.291   2.317
 1228SOL    MW4 4944   0.425   0.366   2.359
 1229SOL     OW 4945   0.661   0.480   2.225
 1229SOL    HW2 4946   0.679   0.572   2.245
 1229SOL    HW3 4947   0.579   0.461   2.271
 1229SOL    MW4 4948   0.652   0.489   2.234
 1230SOL     OW 4949   0.700   0.740   2.326
 1230SOL    HW2 4950   0.677   0.727   2.418
 1230SOL    HW3 4951   0.623   0.780   2.287
 1230SOL    MW4 4952   0.687   0.743   2.333
 1231SOL     OW 4953   0.443   0.861   2.256
 1231SOL    HW2 4954   0.368   0.808   2.283
 1231SOL    HW3 4955   0.426   0.880   2.164
 1231SOL    MW4 4956   0.431   0.856   2.247
 1232SOL     OW 4957   0.468   1.111   2.366
 1232SOL    HW2 4958   0.465   1.021   2.335
 1232SOL    HW3 4959   0.386   1.150   2.334
 1232SOL    MW4 4960   0.457   1.105   2.358
 1233SOL     OW 4961   0.680   1.254   2.242
 1233SOL    HW2 4962   0.662   1.331   2.297
 1233SOL    HW3 4963   0.610   1.192   2.265
 1233SOL    MW4 4964   0.668   1.256   2.252
 1234SOL     OW 4965   0.667   1.511   2.328
 1234SOL    HW2 4966   0.677   1.521   2.422
 1234SOL    HW3 4967   0.747   1.548   2.291
 1234SOL    MW4 4968   0.679   1.517   2.335
 1235SOL     OW 4969   0.444   1.642   2.243
 1235SOL    HW2 4970   0.519   1.587   2.268
 1235SOL    HW3 4971   0.369   1.600   2.285
 1235SOL    MW4 4972   0.444   1.629   2.252
 1236SOL     OW 4973   0.453   1.901   2.353
 1236SOL    HW2 4974   0.533   1.944   2.324
 1236SOL    HW3 4975   0.463   1.810   2.324
 1236SOL    MW4 4976   0.465   1.895   2.345
 1237SOL     OW 4977   0.654   2.040   2.242
 1237SOL    HW2 4978   0.724   1.990   2.284
 1237SOL    HW3 4979   0.655   2.125   2.284
 1237SOL    MW4 4980   0.663   2.044   2.253
 1238SOL     OW 4981   0.660   2.299   2.350
 1238SOL    HW2 4982   0.669   2.281   2.443
 1238SOL    HW3 4983   0.742   2.343   2.326
 1238SOL    MW4 4984   0.672   2.303   2.359
 1239SOL     OW 4985   0.452   2.469   2.237
 1239SOL    HW2 4986   0.515   2.402   2.264
 1239SOL    HW3 4987   0.368   2.436   2.267
 1239SOL    MW4 4988   0.450   2.456   2.245
 1240SOL     OW 4989   0.419   2.707   2.366
 1240SOL    HW2 4990   0.427   2.696   2.461
 1240SOL    HW3 4991   0.445   2.622   2.330
 1240SOL    MW4 4992   0.424   2.694   2.374
 1241SOL     OW 4993   0.661   2.814   2.241
 1241SOL    HW2 4994   0.737   2.774   2.284
 1241SOL    HW3 4995   0.585   2.772   2.281
 1241SOL    MW4 4996   0.661   2.803   2.252
 1242SOL     OW 4997   0.690   3.070   2.380
 1242SOL    HW2 4998   0.610   3.117   2.355
 1242SOL    HW3 4999   0.679   2.983   2.341
 1242SOL    MW4 5000   0.678   3.065   2.371
 1243SOL     OW 5001   0.447   3.206   2.296
 1243SOL    HW2 5002   0.364   3.167   2.323
 1243SOL    HW3 5003   0.446   3.203   2.201
 1243SOL    MW4 5004   0.436   3.201   2.287
 1244SOL     OW 5005   0.416   3.482   2.344
 1244SOL    HW2 5006   0.493   3.530   2.315
 1244SOL    HW3 5007   0.439   3.390   2.328
 1244SOL    MW4 5008   0.429   3.476   2.338
 1245SOL     OW 5009   0.653   3.597   2.252
 1245SOL    HW2 5010   0.641   3.689   2.278
 1245SOL    HW3 5011   0.654   3.599   2.157
 1245SOL    MW4 5012   0.651   3.610   2.243
 1246SOL     OW 5013   0.633   3.850   2.353
 1246SOL    HW2 5014   0.644   3.836   2.447
 1246SOL    HW3 5015   0.558   3.909   2.346
 1246SOL    MW4 5016   0.625   3.856   2.364
 1247SOL     OW 5017   0.410   4.014   2.248
 1247SOL    HW2 5018   0.325   3.982   2.278
 1247SOL    HW3 5019   0.416   3.983   2.157
 1247SOL    MW4 5020   0.400   4.006   2.240
 1248SOL     OW 5021   0.453   4.249   2.366
 1248SOL    HW2 5022   0.523   4.300   2.325
 1248SOL    HW3 5023   0.454   4.165   2.320
 1248SOL    MW4 5024   0.462   4.245   2.355
 1249SOL     OW 5025   0.636   4.386   2.229
 1249SOL    HW2 5026   0.643   4.477   2.257
 1249SOL    HW3 5027   0.618   4.391   2.135
 1249SOL    MW4 5028   0.635   4.399   2.220
 1250SOL     OW 5029   1.103   4.660   2.329
 1250SOL    HW2 5030   1.118   4.669   2.423
 1250SOL    HW3 5031   1.025   4.711   2.312
 1250SOL    MW4 5032   1.095   4.668   2.339
 1251SOL     OW 5033   0.862   0.111   2.263
 1251SOL    HW2 5034   0.877   0.201   2.292
 1251SOL    HW3 5035   0.873   0.115   2.168
 1251SOL    MW4 5036   0.865   0.124   2.254
 1252SOL     OW 5037   0.870   0.365   2.337
 1252SOL    HW2 5038   0.951   0.398   2.298
 1252SOL    HW3 5039   0.801   0.414   2.292
 1252SOL    MW4 5040   0.872   0.376   2.326
 1253SOL     OW 5041   1.105   0.475   2.232
 1253SOL    HW2 5042   1.177   0.426   2.271
 1253SOL    HW3 5043   1.140   0.506   2.148
 1253SOL    MW4 5044   1.119   0.473   2.226
 1254SOL     OW 5045   1.157   0.734   2.368
 1254SOL    HW2 5046   1.095   0.796   2.330
 1254SOL    HW3 5047   1.144   0.654   2.317
 1254SOL    MW4 5048   1.148   0.732   2.356
 1255SOL     OW 5049   0.940   0.892   2.253
 1255SOL    HW2 5050   0.937   0.970   2.308
 1255SOL    HW3 5051   0.864   0.840   2.281
 1255SOL    MW4 5052   0.929   0.895   2.264
 1256SOL     OW 5053   0.903   1.140   2.386
 1256SOL    HW2 5054   0.975   1.167   2.329
 1256SOL    HW3 5055   0.824   1.164   2.336
 1256SOL    MW4 5056   0.902   1.147   2.372
 1257SOL     OW 5057   1.112   1.254   2.249
 1257SOL    HW2 5058   1.198   1.222   2.276
 1257SOL    HW3 5059   1.119   1.264   2.154
 1257SOL    MW4 5060   1.124   1.251   2.240
 1258SOL     OW 5061   1.097   1.525   2.363
 1258SOL    HW2 5062   1.034   1.576   2.313
 1258SOL    HW3 5063   1.092   1.437   2.326
 1258SOL    MW4 5064   1.088   1.520   2.352
 1259SOL     OW 5065   0.886   1.629   2.214
 1259SOL    HW2 5066   0.874   1.719   2.245
 1259SOL    HW3 5067   0.888   1.636   2.119
 1259SOL    MW4 5068   0.885   1.641   2.206
 1260SOL     OW 5069   0.870   1.896   2.336
 1260SOL    HW2 5070   0.874   1.889   2.431
 1260SOL    HW3 5071   0.948   1.945   2.312
 1260SOL    MW4 5072   0.881   1.901   2.346
 1261SOL     OW 5073   1.113   2.034   2.277
 1261SOL    HW2 5074   1.185   1.980   2.309
 1261SOL    HW3 5075   1.115   2.023   2.182
 1261SOL    MW4 5076   1.123   2.026   2.269
 1262SOL     OW 5077   1.117   2.306   2.393
 1262SOL    HW2 5078   1.190   2.346   2.346
 1262SOL    HW3 5079   1.117   2.215   2.364
 1262SOL    MW4 5080   1.127   2.299   2.383
 1263SOL     OW 5081   0.907   2.432   2.281
 1263SOL    HW2 5082   0.975   2.369   2.303
 1263SOL    HW3 5083   0.921   2.452   2.189
 1263SOL    MW4 5084   0.918   2.426   2.272
 1264SOL     OW 5085   0.876   2.697   2.375
 1264SOL    HW2 5086   0.857   2.699   2.469
 1264SOL    HW3 5087   0.907   2.608   2.358
 1264SOL    MW4 5088   0.877   2.685   2.385
 1265SOL     OW 5089   1.087   2.836   2.286
 1265SOL    HW2 5090   1.152   2.769   2.304
 1265SOL    HW3 5091   1.003   2.796   2.308
 1265SOL    MW4 5092   1.085   2.822   2.291
 1266SOL     OW 5093   1.108   3.115   2.375
 1266SOL    HW2 5094   1.026   3.157   2.346
 1266SOL    HW3 5095   1.105   3.028   2.335
 1266SOL    MW4 5096   1.097   3.109   2.366
 1267SOL     OW 5097   0.890   3.239   2.251
 1267SOL    HW2 5098   0.870   3.325   2.288
 1267SOL    HW3 5099   0.834   3.178   2.300
 1267SOL    MW4 5100   0.880   3.242   2.263
 1268SOL     OW 5101   0.885   3.490   2.341
 1268SOL    HW2 5102   0.876   3.481   2.436
 1268SOL    HW3 5103   0.806   3.537   2.314
 1268SOL    MW4 5104   0.873   3.495   2.350
 1269SOL     OW 5105   1.131   3.604   2.298
 1269SOL    HW2 5106   1.198   3.556   2.346
 1269SOL    HW3 5107   1.051   3.551   2.308
 1269SOL    MW4 5108   1.129   3.591   2.306
 1270SOL     OW 5109   1.097   3.884   2.354
 1270SOL    HW2 5110   1.175   3.931   2.324
 1270SOL    HW3 5111   1.113   3.793   2.329
 1270SOL    MW4 5112   1.110   3.878   2.347
 1271SOL     OW 5113   0.862   4.017   2.276
 1271SOL    HW2 5114   0.937   3.966   2.307
 1271SOL    HW3 5115   0.786   3.965   2.301
 1271SOL    MW4 5116   0.862   4.003   2.283
 1272SOL     OW 5117   0.873   4.277   2.327
 1272SOL    HW2 5118   0.866   4.184   2.305
 1272SOL    HW3 5119   0.793   4.317   2.292
 1272SOL    MW4 5120   0.861   4.270   2.320
 1273SOL     OW 5121   1.091   4.407   2.224
 1273SOL    HW2 5122   1.019   4.369   2.275
 1273SOL    HW3 5123   1.101   4.495   2.259
 1273SOL    MW4 5124   1.083   4.413   2.236
 1274SOL     OW 5125   1.594   4.629   2.345
 1274SOL    HW2 5126   1.663   4.674   2.297
 1274SOL    HW3 5127   1.514   4.676   2.322
 1274SOL    MW4 5128   1.592   4.641   2.336
 1275SOL     OW 5129   1.379   0.115   2.234
 1275SOL    HW2 5130   1.355   0.205   2.255
 1275SOL    HW3 5131   1.298   0.065   2.247
 1275SOL    MW4 5132   1.365   0.120   2.238
 1276SOL     OW 5133   1.319   0.356   2.342
 1276SOL    HW2 5134   1.319   0.347   2.437
 1276SOL    HW3 5135   1.399   0.405   2.323
 1276SOL    MW4 5136   1.330   0.361   2.352
 1277SOL     OW 5137   1.549   0.497   2.258
 1277SOL    HW2 5138   1.629   0.454   2.287
 1277SOL    HW3 5139   1.548   0.484   2.163
 1277SOL    MW4 5140   1.559   0.489   2.249
 1278SOL     OW 5141   1.594   0.751   2.401
 1278SOL    HW2 5142   1.668   0.793   2.357
 1278SOL    HW3 5143   1.568   0.680   2.342
 1278SOL    MW4 5144   1.600   0.747   2.387
 1279SOL     OW 5145   1.382   0.887   2.284
 1279SOL    HW2 5146   1.463   0.857   2.327
 1279SOL    HW3 5147   1.315   0.826   2.314
 1279SOL    MW4 5148   1.384   0.875   2.294
 1280SOL     OW 5149   1.356   1.158   2.332
 1280SOL    HW2 5150   1.352   1.150   2.427
 1280SOL    HW3 5151   1.372   1.069   2.301
 1280SOL    MW4 5152   1.358   1.145   2.340
 1281SOL     OW 5153   1.566   1.301   2.235
 1281SOL    HW2 5154   1.483   1.258   2.254
 1281SOL    HW3 5155   1.570   1.306   2.139
 1281SOL    MW4 5156   1.556   1.296   2.225
 1282SOL     OW 5157   1.546   1.571   2.318
 1282SOL    HW2 5158   1.626   1.619   2.295
 1282SOL    HW3 5159   1.560   1.483   2.284
 1282SOL    MW4 5160   1.559   1.566   2.310
 1283SOL     OW 5161   1.297   1.640   2.211
 1283SOL    HW2 5162   1.374   1.618   2.263
 1283SOL    HW3 5163   1.225   1.596   2.256
 1283SOL    MW4 5164   1.298   1.631   2.224
 1284SOL     OW 5165   1.324   1.874   2.371
 1284SOL    HW2 5166   1.401   1.917   2.332
 1284SOL    HW3 5167   1.315   1.793   2.322
 1284SOL    MW4 5168   1.333   1.869   2.359
 1285SOL     OW 5169   1.525   2.041   2.259
 1285SOL    HW2 5170   1.604   1.992   2.282
 1285SOL    HW3 5171   1.529   2.050   2.164
 1285SOL    MW4 5172   1.536   2.036   2.249
 1286SOL     OW 5173   1.556   2.317   2.332
 1286SOL    HW2 5174   1.569   2.329   2.426
 1286SOL    HW3 5175   1.552   2.222   2.320
 1286SOL    MW4 5176   1.557   2.306   2.343
 1287SOL     OW 5177   1.311   2.435   2.250
 1287SOL    HW2 5178   1.395   2.405   2.286
 1287SOL    HW3 5179   1.321   2.425   2.156
 1287SOL    MW4 5180   1.324   2.430   2.243
 1288SOL     OW 5181   1.324   2.694   2.362
 1288SOL    HW2 5182   1.386   2.741   2.307
 1288SOL    HW3 5183   1.324   2.605   2.328
 1288SOL    MW4 5184   1.332   2.688   2.350
 1289SOL     OW 5185   1.533   2.840   2.223
 1289SOL    HW2 5186   1.564   2.925   2.253
 1289SOL    HW3 5187   1.544   2.843   2.128
 1289SOL    MW4 5188   1.539   2.851   2.214
 1290SOL     OW 5189   1.588   3.104   2.348
 1290SOL    HW2 5190   1.576   3.069   2.436
 1290SOL    HW3 5191   1.501   3.132   2.320
 1290SOL    MW4 5192   1.575   3.103   2.356
 1291SOL     OW 5193   1.350   3.227   2.282
 1291SOL    HW2 5194   1.262   3.194   2.297
 1291SOL    HW3 5195   1.360   3.225   2.186
 1291SOL    MW4 5196   1.340   3.223   2.271
 1292SOL     OW 5197   1.371   3.486   2.406
 1292SOL    HW2 5198   1.380   3.490   2.501
 1292SOL    HW3 5199   1.366   3.393   2.386
 1292SOL    MW4 5200   1.372   3.475   2.416
 1293SOL     OW 5201   1.571   3.641   2.297
 1293SOL    HW2 5202   1.560   3.730   2.330
 1293SOL    HW3 5203   1.492   3.595   2.324
 1293SOL    MW4 5204   1.559   3.646   2.305
 1294SOL     OW 5205   1.531   3.929   2.378
 1294SOL    HW2 5206   1.551   3.896   2.466
 1294SOL    HW3 5207   1.616   3.951   2.340
 1294SOL    MW4 5208   1.545   3.927   2.384
 1295SOL     OW 5209   1.310   4.023   2.241
 1295SOL    HW2 5210   1.389   3.995   2.287
 1295SOL    HW3 5211   1.324   3.996   2.150
 1295SOL    MW4 5212   1.322   4.016   2.235
 1296SOL     OW 5213   1.313   4.292   2.335
 1296SOL    HW2 5214   1.298   4.204   2.302
 1296SOL    HW3 5215   1.232   4.340   2.315
 1296SOL    MW4 5216   1.300   4.287   2.328
 1297SOL     OW 5217   1.567   4.385   2.233
 1297SOL    HW2 5218   1.481   4.350   2.257
 1297SOL    HW3 5219   1.574   4.466   2.282
 1297SOL    MW4 5220   1.556   4.391   2.242
 1298SOL     OW 5221   2.044   4.653   2.315
 1298SOL    HW2 5222   2.127   4.677   2.273
 1298SOL    HW3 5223   2.028   4.563   2.287
 1298SOL    MW4 5224   2.053   4.645   2.305
 1299SOL     OW 5225   1.807   0.106   2.222
 1299SOL    HW2 5226   1.789   0.197   2.244
 1299SOL    HW3 5227   1.889   0.086   2.267
 1299SOL    MW4 5228   1.815   0.115   2.231
 1300SOL     OW 5229   1.780   0.377   2.317
 1300SOL    HW2 5230   1.782   0.367   2.412
 1300SOL    HW3 5231   1.866   0.412   2.294
 1300SOL    MW4 5232   1.791   0.380   2.326
 1301SOL     OW 5233   2.019   0.492   2.258
 1301SOL    HW2 5234   2.016   0.580   2.296
 1301SOL    HW3 5235   2.019   0.507   2.164
 1301SOL    MW4 5236   2.018   0.506   2.251
 1302SOL     OW 5237   2.024   0.747   2.361
 1302SOL    HW2 5238   2.093   0.792   2.313
 1302SOL    HW3 5239   1.944   0.793   2.338
 1302SOL    MW4 5240   2.023   0.759   2.352
 1303SOL     OW 5241   1.797   0.883   2.283
 1303SOL    HW2 5242   1.771   0.971   2.312
 1303SOL    HW3 5243   1.796   0.888   2.188
 1303SOL    MW4 5244   1.793   0.895   2.275
 1304SOL     OW 5245   1.763   1.152   2.346
 1304SOL    HW2 5246   1.845   1.194   2.322
 1304SOL    HW3 5247   1.695   1.209   2.308
 1304SOL    MW4 5248   1.765   1.165   2.338
 1305SOL     OW 5249   1.986   1.270   2.266
 1305SOL    HW2 5250   1.993   1.361   2.294
 1305SOL    HW3 5251   1.987   1.273   2.170
 1305SOL    MW4 5252   1.987   1.282   2.257
 1306SOL     OW 5253   2.012   1.534   2.321
 1306SOL    HW2 5254   2.007   1.542   2.416
 1306SOL    HW3 5255   1.930   1.573   2.289
 1306SOL    MW4 5256   2.000   1.540   2.329
 1307SOL     OW 5257   1.775   1.685   2.220
 1307SOL    HW2 5258   1.777   1.776   2.251
 1307SOL    HW3 5259   1.758   1.692   2.126
 1307SOL    MW4 5260   1.773   1.698   2.212
 1308SOL     OW 5261   1.761   1.929   2.360
 1308SOL    HW2 5262   1.758   1.928   2.455
 1308SOL    HW3 5263   1.845   1.969   2.339
 1308SOL    MW4 5264   1.772   1.934   2.369
 1309SOL     OW 5265   1.985   2.082   2.271
 1309SOL    HW2 5266   2.071   2.051   2.299
 1309SOL    HW3 5267   1.989   2.080   2.176
 1309SOL    MW4 5268   1.997   2.078   2.262
 1310SOL     OW 5269   1.983   2.353   2.376
 1310SOL    HW2 5270   2.062   2.397   2.343
 1310SOL    HW3 5271   1.991   2.263   2.345
 1310SOL    MW4 5272   1.994   2.347   2.368
 1311SOL     OW 5273   1.760   2.433   2.206
 1311SOL    HW2 5274   1.826   2.396   2.266
 1311SOL    HW3 5275   1.679   2.388   2.229
 1311SOL    MW4 5276   1.758   2.422   2.217
 1312SOL     OW 5277   1.765   2.688   2.341
 1312SOL    HW2 5278   1.772   2.601   2.299
 1312SOL    HW3 5279   1.686   2.726   2.302
 1312SOL    MW4 5280   1.756   2.681   2.330
 1313SOL     OW 5281   1.973   2.861   2.255
 1313SOL    HW2 5282   2.048   2.816   2.296
 1313SOL    HW3 5283   1.897   2.813   2.287
 1313SOL    MW4 5284   1.973   2.849   2.265
 1314SOL     OW 5285   2.017   3.117   2.352
 1314SOL    HW2 5286   2.103   3.140   2.316
 1314SOL    HW3 5287   2.000   3.029   2.318
 1314SOL    MW4 5288   2.026   3.108   2.343
 1315SOL     OW 5289   1.802   3.216   2.215
 1315SOL    HW2 5290   1.874   3.184   2.270
 1315SOL    HW3 5291   1.723   3.192   2.263
 1315SOL    MW4 5292   1.801   3.209   2.229
 1316SOL     OW 5293   1.774   3.461   2.315
 1316SOL    HW2 5294   1.769   3.377   2.269
 1316SOL    HW3 5295   1.689   3.501   2.300
 1316SOL    MW4 5296   1.762   3.455   2.307
 1317SOL     OW 5297   2.006   3.608   2.239
 1317SOL    HW2 5298   1.936   3.559   2.283
 1317SOL    HW3 5299   1.990   3.594   2.146
 1317SOL    MW4 5300   1.995   3.599   2.233
 1318SOL     OW 5301   2.021   3.884   2.329
 1318SOL    HW2 5302   2.013   3.882   2.424
 1318SOL    HW3 5303   2.016   3.792   2.303
 1318SOL    MW4 5304   2.020   3.871   2.338
 1319SOL     OW 5305   1.769   4.004   2.254
 1319SOL    HW2 5306   1.853   3.962   2.273
 1319SOL    HW3 5307   1.764   4.004   2.159
 1319SOL    MW4 5308   1.780   3.999   2.244
 1320SOL     OW 5309   1.800   4.281   2.360
 1320SOL    HW2 5310   1.799   4.188   2.338
 1320SOL    HW3 5311   1.719   4.315   2.323
 1320SOL    MW4 5312   1.790   4.273   2.352
 1321SOL     OW 5313   2.018   4.387   2.228
 1321SOL    HW2 5314   1.937   4.355   2.268
 1321SOL    HW3 5315   1.997   4.394   2.135
 1321SOL    MW4 5316   2.004   4.383   2.221
 1322SOL     OW 5317   2.502   0.016   2.324
 1322SOL    HW2 5318   2.587   0.044   2.289
 1322SOL    HW3 5319   2.498  -0.078   2.304
 1322SOL    MW4 5320   2.513   0.007   2.316
 1323SOL     OW 5321   2.297   0.119   2.175
 1323SOL    HW2 5322   2.270   0.190   2.233
 1323SOL    HW3 5323   2.382   0.091   2.209
 1323SOL    MW4 5324   2.305   0.124   2.187
 1324SOL     OW 5325   2.244   0.347   2.318
 1324SOL    HW2 5326   2.321   0.400   2.296
 1324SOL    HW3 5327   2.171   0.392   2.276
 1324SOL    MW4 5328   2.245   0.360   2.310
 1325SOL     OW 5329   2.469   0.509   2.251
 1325SOL    HW2 5330   2.539   0.451   2.280
 1325SOL    HW3 5331   2.474   0.507   2.155
 1325SOL    MW4 5332   2.479   0.501   2.242
 1326SOL     OW 5333   2.466   0.773   2.345
 1326SOL    HW2 5334   2.556   0.796   2.324
 1326SOL    HW3 5335   2.455   0.684   2.311
 1326SOL    MW4 5336   2.476   0.764   2.337
 1327SOL     OW 5337   2.242   0.902   2.241
 1327SOL    HW2 5338   2.232   0.992   2.273
 1327SOL    HW3 5339   2.324   0.872   2.280
 1327SOL    MW4 5340   2.252   0.910   2.251
 1328SOL     OW 5341   2.219   1.153   2.370
 1328SOL    HW2 5342   2.287   1.212   2.338
 1328SOL    HW3 5343   2.137   1.198   2.350
 1328SOL    MW4 5344   2.217   1.167   2.363
 1329SOL     OW 5345   2.424   1.320   2.252
 1329SOL    HW2 5346   2.507   1.282   2.279
 1329SOL    HW3 5347   2.433   1.414   2.271
 1329SOL    MW4 5348   2.436   1.328   2.258
 1330SOL     OW 5349   2.483   1.582   2.318
 1330SOL    HW2 5350   2.487   1.589   2.414
 1330SOL    HW3 5351   2.554   1.639   2.287
 1330SOL    MW4 5352   2.493   1.591   2.327
 1331SOL     OW 5353   2.233   1.695   2.237
 1331SOL    HW2 5354   2.314   1.652   2.264
 1331SOL    HW3 5355   2.163   1.639   2.271
 1331SOL    MW4 5356   2.234   1.682   2.245
 1332SOL     OW 5357   2.220   1.958   2.331
 1332SOL    HW2 5358   2.298   1.997   2.292
 1332SOL    HW3 5359   2.213   1.872   2.290
 1332SOL    MW4 5360   2.229   1.952   2.320
 1333SOL     OW 5361   2.457   2.096   2.246
 1333SOL    HW2 5362   2.529   2.049   2.287
 1333SOL    HW3 5363   2.466   2.079   2.153
 1333SOL    MW4 5364   2.468   2.088   2.239
 1334SOL     OW 5365   2.433   2.356   2.365
 1334SOL    HW2 5366   2.513   2.407   2.353
 1334SOL    HW3 5367   2.449   2.275   2.316
 1334SOL    MW4 5368   2.446   2.352   2.357
 1335SOL     OW 5369   2.209   2.460   2.246
 1335SOL    HW2 5370   2.199   2.550   2.277
 1335SOL    HW3 5371   2.295   2.432   2.279
 1335SOL    MW4 5372   2.219   2.468   2.255
 1336SOL     OW 5373   2.202   2.732   2.331
 1336SOL    HW2 5374   2.214   2.731   2.426
 1336SOL    HW3 5375   2.283   2.770   2.297
 1336SOL    MW4 5376   2.214   2.737   2.339
 1337SOL     OW 5377   2.441   2.835   2.242
 1337SOL    HW2 5378   2.525   2.803   2.274
 1337SOL    HW3 5379   2.444   2.821   2.147
 1337SOL    MW4 5380   2.452   2.829   2.233
 1338SOL     OW 5381   2.454   3.116   2.343
 1338SOL    HW2 5382   2.534   3.149   2.302
 1338SOL    HW3 5383   2.448   3.025   2.315
 1338SOL    MW4 5384   2.463   3.108   2.334
 1339SOL     OW 5385   2.237   3.235   2.214
 1339SOL    HW2 5386   2.237   3.322   2.255
 1339SOL    HW3 5387   2.316   3.193   2.247
 1339SOL    MW4 5388   2.247   3.241   2.224
 1340SOL     OW 5389   2.280   3.488   2.324
 1340SOL    HW2 5390   2.273   3.493   2.419
 1340SOL    HW3 5391   2.203   3.534   2.292
 1340SOL    MW4 5392   2.269   3.495   2.332
 1341SOL     OW 5393   2.485   3.639   2.207
 1341SOL    HW2 5394   2.483   3.731   2.235
 1341SOL    HW3 5395   2.407   3.600   2.246
 1341SOL    MW4 5396   2.474   3.646   2.216
 1342SOL     OW 5397   2.514   3.892   2.301
 1342SOL    HW2 5398   2.513   3.885   2.396
 1342SOL    HW3 5399   2.431   3.934   2.279
 1342SOL    MW4 5400   2.503   3.897   2.311
 1343SOL     OW 5401   2.261   4.024   2.249
 1343SOL    HW2 5402   2.252   4.115   2.278
 1343SOL    HW3 5403   2.183   3.981   2.283
 1343SOL    MW4 5404   2.250   4.031   2.257
 1344SOL     OW 5405   2.241   4.271   2.331
 1344SOL    HW2 5406   2.233   4.275   2.426
 1344SOL    HW3 5407   2.160   4.311   2.299
 1344SOL    MW4 5408   2.229   4.277   2.339
 1345SOL     OW 5409   2.457   4.424   2.241
 1345SOL    HW2 5410   2.522   4.378   2.294
 1345SOL    HW3 5411   2.373   4.386   2.267
 1345SOL    MW4 5412   2.455   4.413   2.252
 1346SOL     OW 5413   2.944   4.660   2.361
 1346SOL    HW2 5414   3.025   4.687   2.318
 1346SOL    HW3 5415   2.926   4.573   2.327
 1346SOL    MW4 5416   2.952   4.652   2.351
 1347SOL     OW 5417   2.745   0.107   2.219
 1347SOL    HW2 5418   2.731   0.188   2.268
 1347SOL    HW3 5419   2.820   0.066   2.262
 1347SOL    MW4 5420   2.753   0.112   2.231
 1348SOL     OW 5421   2.690   0.363   2.305
 1348SOL    HW2 5422   2.692   0.360   2.400
 1348SOL    HW3 5423   2.773   0.405   2.280
 1348SOL    MW4 5424   2.701   0.368   2.314
 1349SOL     OW 5425   2.928   0.508   2.237
 1349SOL    HW2 5426   2.911   0.595   2.274
 1349SOL    HW3 5427   2.915   0.519   2.143
 1349SOL    MW4 5428   2.924   0.521   2.229
 1350SOL     OW 5429   2.927   0.770   2.327
 1350SOL    HW2 5430   2.928   0.754   2.422
 1350SOL    HW3 5431   2.848   0.822   2.313
 1350SOL    MW4 5432   2.916   0.775   2.338
 1351SOL     OW 5433   2.702   0.894   2.263
 1351SOL    HW2 5434   2.682   0.985   2.284
 1351SOL    HW3 5435   2.693   0.889   2.168
 1351SOL    MW4 5436   2.698   0.906   2.253
 1352SOL     OW 5437   2.652   1.173   2.335
 1352SOL    HW2 5438   2.664   1.159   2.429
 1352SOL    HW3 5439   2.733   1.215   2.306
 1352SOL    MW4 5440   2.664   1.177   2.343
 1353SOL     OW 5441   2.875   1.306   2.249
 1353SOL    HW2 5442   2.953   1.259   2.279
 1353SOL    HW3 5443   2.877   1.296   2.153
 1353SOL    MW4 5444   2.886   1.298   2.240
 1354SOL     OW 5445   2.920   1.575   2.345
 1354SOL    HW2 5446   2.930   1.568   2.440
 1354SOL    HW3 5447   2.905   1.484   2.317
 1354SOL    MW4 5448   2.920   1.562   2.354
 1355SOL     OW 5449   2.723   1.728   2.244
 1355SOL    HW2 5450   2.796   1.675   2.274
 1355SOL    HW3 5451   2.734   1.734   2.150
 1355SOL    MW4 5452   2.734   1.722   2.236
 1356SOL     OW 5453   2.668   1.976   2.362
 1356SOL    HW2 5454   2.666   1.964   2.457
 1356SOL    HW3 5455   2.683   1.888   2.327
 1356SOL    MW4 5456   2.670   1.963   2.370
 1357SOL     OW 5457   2.906   2.078   2.262
 1357SOL    HW2 5458   2.977   2.019   2.284
 1357SOL    HW3 5459   2.834   2.053   2.320
 1357SOL    MW4 5460   2.906   2.067   2.272
 1358SOL     OW 5461   2.914   2.342   2.337
 1358SOL    HW2 5462   2.928   2.341   2.432
 1358SOL    HW3 5463   2.894   2.251   2.315
 1358SOL    MW4 5464   2.913   2.330   2.347
 1359SOL     OW 5465   2.660   2.455   2.239
 1359SOL    HW2 5466   2.739   2.438   2.291
 1359SOL    HW3 5467   2.687   2.443   2.148
 1359SOL    MW4 5468   2.674   2.451   2.234
 1360SOL     OW 5469   2.687   2.722   2.330
 1360SOL    HW2 5470   2.773   2.755   2.304
 1360SOL    HW3 5471   2.681   2.635   2.291
 1360SOL    MW4 5472   2.698   2.715   2.322
 1361SOL     OW 5473   2.934   2.778   2.248
 1361SOL    HW2 5474   2.942   2.869   2.278
 1361SOL    HW3 5475   2.938   2.784   2.152
 1361SOL    MW4 5476   2.936   2.791   2.239
 1362SOL     OW 5477   2.917   3.048   2.323
 1362SOL    HW2 5478   2.981   3.115   2.300
 1362SOL    HW3 5479   2.832   3.088   2.302
 1362SOL    MW4 5480   2.914   3.063   2.317
 1363SOL     OW 5481   2.683   3.185   2.227
 1363SOL    HW2 5482   2.695   3.278   2.245
 1363SOL    HW3 5483   2.687   3.178   2.132
 1363SOL    MW4 5484   2.685   3.196   2.217
 1364SOL     OW 5485   2.713   3.472   2.298
 1364SOL    HW2 5486   2.786   3.530   2.276
 1364SOL    HW3 5487   2.635   3.517   2.266
 1364SOL    MW4 5488   2.712   3.485   2.291
 1365SOL     OW 5489   2.955   3.606   2.223
 1365SOL    HW2 5490   3.028   3.564   2.269
 1365SOL    HW3 5491   2.944   3.690   2.267
 1365SOL    MW4 5492   2.963   3.612   2.235
 1366SOL     OW 5493   2.935   3.851   2.338
 1366SOL    HW2 5494   2.941   3.866   2.433
 1366SOL    HW3 5495   2.862   3.906   2.310
 1366SOL    MW4 5496   2.926   3.860   2.347
 1367SOL     OW 5497   2.729   4.058   2.265
 1367SOL    HW2 5498   2.659   3.999   2.293
 1367SOL    HW3 5499   2.715   4.067   2.170
 1367SOL    MW4 5500   2.718   4.051   2.256
 1368SOL     OW 5501   2.650   4.305   2.383
 1368SOL    HW2 5502   2.638   4.296   2.478
 1368SOL    HW3 5503   2.666   4.216   2.353
 1368SOL    MW4 5504   2.650   4.292   2.392
 1369SOL     OW 5505   2.880   4.405   2.257
 1369SOL    HW2 5506   2.956   4.360   2.294
 1369SOL    HW3 5507   2.805   4.370   2.306
 1369SOL    MW4 5508   2.880   4.394   2.268
 1370SOL     OW 5509   3.350   4.623   2.369
 1370SOL    HW2 5510   3.351   4.664   2.455
 1370SOL    HW3 5511   3.413   4.675   2.318
 1370SOL    MW4 5512   3.359   4.636   2.373
 1371SOL     OW 5513   3.169   0.113   2.247
 1371SOL    HW2 5514   3.154   0.199   2.286
 1371SOL    HW3 5515   3.236   0.073   2.303
 1371SOL    MW4 5516   3.176   0.119   2.260
 1372SOL     OW 5517   3.178   0.401   2.326
 1372SOL    HW2 5518   3.249   0.464   2.315
 1372SOL    HW3 5519   3.103   0.442   2.282
 1372SOL    MW4 5520   3.177   0.415   2.318
 1373SOL     OW 5521   3.405   0.551   2.246
 1373SOL    HW2 5522   3.476   0.495   2.277
 1373SOL    HW3 5523   3.392   0.525   2.155
 1373SOL    MW4 5524   3.413   0.540   2.238
 1374SOL     OW 5525   3.367   0.817   2.335
 1374SOL    HW2 5526   3.445   0.864   2.306
 1374SOL    HW3 5527   3.382   0.726   2.306
 1374SOL    MW4 5528   3.379   0.811   2.327
 1375SOL     OW 5529   3.134   0.912   2.236
 1375SOL    HW2 5530   3.212   0.878   2.279
 1375SOL    HW3 5531   3.065   0.850   2.259
 1375SOL    MW4 5532   3.135   0.900   2.245
 1376SOL     OW 5533   3.099   1.172   2.328
 1376SOL    HW2 5534   3.183   1.202   2.293
 1376SOL    HW3 5535   3.094   1.080   2.301
 1376SOL    MW4 5536   3.109   1.163   2.320
 1377SOL     OW 5537   3.325   1.319   2.253
 1377SOL    HW2 5538   3.402   1.273   2.286
 1377SOL    HW3 5539   3.337   1.410   2.281
 1377SOL    MW4 5540   3.337   1.325   2.261
 1378SOL     OW 5541   3.371   1.601   2.319
 1378SOL    HW2 5542   3.365   1.616   2.413
 1378SOL    HW3 5543   3.291   1.638   2.283
 1378SOL    MW4 5544   3.360   1.608   2.327
 1379SOL     OW 5545   3.119   1.710   2.212
 1379SOL    HW2 5546   3.136   1.792   2.259
 1379SOL    HW3 5547   3.046   1.671   2.259
 1379SOL    MW4 5548   3.112   1.716   2.225
 1380SOL     OW 5549   3.159   1.945   2.351
 1380SOL    HW2 5550   3.143   1.945   2.445
 1380SOL    HW3 5551   3.249   1.977   2.342
 1380SOL    MW4 5552   3.169   1.949   2.362
 1381SOL     OW 5553   3.414   2.072   2.258
 1381SOL    HW2 5554   3.491   2.020   2.278
 1381SOL    HW3 5555   3.408   2.070   2.162
 1381SOL    MW4 5556   3.423   2.065   2.248
 1382SOL     OW 5557   3.371   2.358   2.338
 1382SOL    HW2 5558   3.290   2.389   2.299
 1382SOL    HW3 5559   3.375   2.265   2.315
 1382SOL    MW4 5560   3.361   2.350   2.330
 1383SOL     OW 5561   3.154   2.433   2.201
 1383SOL    HW2 5562   3.172   2.520   2.238
 1383SOL    HW3 5563   3.067   2.411   2.234
 1383SOL    MW4 5564   3.145   2.442   2.211
 1384SOL     OW 5565   3.183   2.692   2.320
 1384SOL    HW2 5566   3.184   2.686   2.415
 1384SOL    HW3 5567   3.091   2.708   2.297
 1384SOL    MW4 5568   3.171   2.693   2.329
 1385SOL     OW 5569   3.403   2.815   2.216
 1385SOL    HW2 5570   3.393   2.905   2.247
 1385SOL    HW3 5571   3.334   2.767   2.261
 1385SOL    MW4 5572   3.393   2.821   2.226
 1386SOL     OW 5573   3.362   3.060   2.316
 1386SOL    HW2 5574   3.436   3.120   2.310
 1386SOL    HW3 5575   3.287   3.111   2.286
 1386SOL    MW4 5576   3.362   3.075   2.311
 1387SOL     OW 5577   3.122   3.216   2.260
 1387SOL    HW2 5578   3.124   3.307   2.290
 1387SOL    HW3 5579   3.117   3.222   2.165
 1387SOL    MW4 5580   3.122   3.229   2.252
 1388SOL     OW 5581   3.159   3.474   2.366
 1388SOL    HW2 5582   3.163   3.467   2.461
 1388SOL    HW3 5583   3.238   3.522   2.342
 1388SOL    MW4 5584   3.170   3.479   2.376
 1389SOL     OW 5585   3.390   3.630   2.301
 1389SOL    HW2 5586   3.471   3.579   2.308
 1389SOL    HW3 5587   3.361   3.617   2.211
 1389SOL    MW4 5588   3.397   3.622   2.290
 1390SOL     OW 5589   3.398   3.894   2.382
 1390SOL    HW2 5590   3.477   3.926   2.338
 1390SOL    HW3 5591   3.396   3.801   2.363
 1390SOL    MW4 5592   3.408   3.886   2.374
 1391SOL     OW 5593   3.165   4.001   2.244
 1391SOL    HW2 5594   3.240   3.965   2.293
 1391SOL    HW3 5595   3.091   3.947   2.271
 1391SOL    MW4 5596   3.165   3.989   2.254
 1392SOL     OW 5597   3.109   4.269   2.342
 1392SOL    HW2 5598   3.191   4.316   2.328
 1392SOL    HW3 5599   3.124   4.183   2.303
 1392SOL    MW4 5600   3.122   4.264   2.335
 1393SOL     OW 5601   3.341   4.363   2.252
 1393SOL    HW2 5602   3.337   4.457   2.265
 1393SOL    HW3 5603   3.347   4.352   2.157
 1393SOL    MW4 5604   3.341   4.374   2.241
 1394SOL     OW 5605   3.769   4.634   2.387
 1394SOL    HW2 5606   3.780   4.636   2.482
 1394SOL    HW3 5607   3.844   4.682   2.353
 1394SOL    MW4 5608   3.780   4.640   2.395
 1395SOL     OW 5609   3.554   0.101   2.253
 1395SOL    HW2 5610   3.575   0.193   2.270
 1395SOL    HW3 5611   3.621   0.052   2.301
 1395SOL    MW4 5612   3.566   0.107   2.262
 1396SOL     OW 5613   3.595   0.357   2.346
 1396SOL    HW2 5614   3.583   0.358   2.441
 1396SOL    HW3 5615   3.664   0.421   2.330
 1396SOL    MW4 5616   3.603   0.365   2.357
 1397SOL     OW 5617   3.796   0.523   2.315
 1397SOL    HW2 5618   3.802   0.618   2.329
 1397SOL    HW3 5619   3.820   0.510   2.224
 1397SOL    MW4 5620   3.800   0.534   2.305
 1398SOL     OW 5621   3.807   0.799   2.361
 1398SOL    HW2 5622   3.815   0.805   2.456
 1398SOL    HW3 5623   3.892   0.827   2.328
 1398SOL    MW4 5624   3.819   0.803   2.369
 1399SOL     OW 5625   3.601   0.937   2.265
 1399SOL    HW2 5626   3.670   0.878   2.296
 1399SOL    HW3 5627   3.618   0.945   2.171
 1399SOL    MW4 5628   3.612   0.930   2.256
 1400SOL     OW 5629   3.539   1.184   2.345
 1400SOL    HW2 5630   3.557   1.203   2.438
 1400SOL    HW3 5631   3.568   1.093   2.333
 1400SOL    MW4 5632   3.545   1.175   2.356
 1401SOL     OW 5633   3.795   1.270   2.265
 1401SOL    HW2 5634   3.805   1.359   2.298
 1401SOL    HW3 5635   3.705   1.245   2.287
 1401SOL    MW4 5636   3.784   1.278   2.273
 1402SOL     OW 5637   3.807   1.516   2.366
 1402SOL    HW2 5638   3.793   1.532   2.459
 1402SOL    HW3 5639   3.734   1.560   2.323
 1402SOL    MW4 5640   3.796   1.524   2.372
 1403SOL     OW 5641   3.628   1.675   2.217
 1403SOL    HW2 5642   3.545   1.654   2.259
 1403SOL    HW3 5643   3.611   1.665   2.123
 1403SOL    MW4 5644   3.615   1.671   2.210
 1404SOL     OW 5645   3.633   1.910   2.384
 1404SOL    HW2 5646   3.709   1.963   2.361
 1404SOL    HW3 5647   3.635   1.837   2.322
 1404SOL    MW4 5648   3.643   1.907   2.373
 1405SOL     OW 5649   3.838   2.066   2.248
 1405SOL    HW2 5650   3.918   2.027   2.281
 1405SOL    HW3 5651   3.836   2.042   2.155
 1405SOL    MW4 5652   3.848   2.058   2.240
 1406SOL     OW 5653   3.783   2.302   2.361
 1406SOL    HW2 5654   3.719   2.350   2.309
 1406SOL    HW3 5655   3.802   2.223   2.310
 1406SOL    MW4 5656   3.777   2.298   2.348
 1407SOL     OW 5657   3.594   2.425   2.197
 1407SOL    HW2 5658   3.507   2.400   2.229
 1407SOL    HW3 5659   3.587   2.422   2.102
 1407SOL    MW4 5660   3.581   2.422   2.189
 1408SOL     OW 5661   3.590   2.675   2.364
 1408SOL    HW2 5662   3.594   2.599   2.306
 1408SOL    HW3 5663   3.516   2.727   2.331
 1408SOL    MW4 5664   3.581   2.672   2.352
 1409SOL     OW 5665   3.794   2.827   2.266
 1409SOL    HW2 5666   3.781   2.914   2.305
 1409SOL    HW3 5667   3.728   2.772   2.308
 1409SOL    MW4 5668   3.784   2.831   2.277
 1410SOL     OW 5669   3.798   3.098   2.361
 1410SOL    HW2 5670   3.806   3.105   2.456
 1410SOL    HW3 5671   3.880   3.136   2.328
 1410SOL    MW4 5672   3.810   3.104   2.369
 1411SOL     OW 5673   3.585   3.232   2.245
 1411SOL    HW2 5674   3.592   3.319   2.284
 1411SOL    HW3 5675   3.656   3.182   2.285
 1411SOL    MW4 5676   3.595   3.237   2.255
 1412SOL     OW 5677   3.622   3.500   2.337
 1412SOL    HW2 5678   3.600   3.512   2.429
 1412SOL    HW3 5679   3.706   3.544   2.326
 1412SOL    MW4 5680   3.630   3.508   2.347
 1413SOL     OW 5681   3.831   3.648   2.265
 1413SOL    HW2 5682   3.801   3.735   2.294
 1413SOL    HW3 5683   3.808   3.645   2.172
 1413SOL    MW4 5684   3.824   3.659   2.256
 1414SOL     OW 5685   3.755   3.897   2.365
 1414SOL    HW2 5686   3.777   3.900   2.458
 1414SOL    HW3 5687   3.833   3.932   2.321
 1414SOL    MW4 5688   3.768   3.902   2.371
 1415SOL     OW 5689   3.584   4.073   2.246
 1415SOL    HW2 5690   3.565   4.158   2.286
 1415SOL    HW3 5691   3.653   4.035   2.300
 1415SOL    MW4 5692   3.590   4.079   2.258
 1416SOL     OW 5693   3.587   4.313   2.373
 1416SOL    HW2 5694   3.650   4.363   2.323
 1416SOL    HW3 5695   3.504   4.359   2.361
 1416SOL    MW4 5696   3.584   4.326   2.365
 1417SOL     OW 5697   3.801   4.416   2.205
 1417SOL    HW2 5698   3.862   4.350   2.238
 1417SOL    HW3 5699   3.795   4.481   2.275
 1417SOL    MW4 5700   3.809   4.416   2.219
 1418SOL     OW 5701   4.235   4.664   2.349
 1418SOL    HW2 5702   4.242   4.674   2.444
 1418SOL    HW3 5703   4.312   4.707   2.314
 1418SOL    MW4 5704   4.246   4.671   2.357
 1419SOL     OW 5705   3.987   0.117   2.299
 1419SOL    HW2 5706   4.009   0.209   2.307
 1419SOL    HW3 5707   4.066   0.070   2.325
 1419SOL    MW4 5708   4.000   0.123   2.304
 1420SOL     OW 5709   4.036   0.384   2.360
 1420SOL    HW2 5710   4.113   0.429   2.326
 1420SOL    HW3 5711   3.964   0.444   2.343
 1420SOL    MW4 5712   4.037   0.398   2.353
 1421SOL     OW 5713   4.287   0.508   2.261
 1421SOL    HW2 5714   4.293   0.590   2.309
 1421SOL    HW3 5715   4.356   0.453   2.298
 1421SOL    MW4 5716   4.297   0.512   2.272
 1422SOL     OW 5717   4.296   0.760   2.387
 1422SOL    HW2 5718   4.237   0.832   2.365
 1422SOL    HW3 5719   4.382   0.790   2.356
 1422SOL    MW4 5720   4.300   0.774   2.380
 1423SOL     OW 5721   4.049   0.891   2.290
 1423SOL    HW2 5722   4.048   0.985   2.308
 1423SOL    HW3 5723   4.076   0.884   2.198
 1423SOL    MW4 5724   4.052   0.903   2.280
 1424SOL     OW 5725   4.042   1.160   2.363
 1424SOL    HW2 5726   4.062   1.167   2.456
 1424SOL    HW3 5727   3.947   1.174   2.358
 1424SOL    MW4 5728   4.032   1.163   2.375
 1425SOL     OW 5729   4.275   1.302   2.245
 1425SOL    HW2 5730   4.198   1.264   2.287
 1425SOL    HW3 5731   4.348   1.250   2.279
 1425SOL    MW4 5732   4.274   1.290   2.255
 1426SOL     OW 5733   4.263   1.567   2.364
 1426SOL    HW2 5734   4.278   1.483   2.319
 1426SOL    HW3 5735   4.333   1.624   2.332
 1426SOL    MW4 5736   4.275   1.563   2.354
 1427SOL     OW 5737   4.029   1.645   2.251
 1427SOL    HW2 5738   4.106   1.609   2.294
 1427SOL    HW3 5739   3.955   1.603   2.294
 1427SOL    MW4 5740   4.029   1.635   2.263
 1428SOL     OW 5741   4.054   1.917   2.341
 1428SOL    HW2 5742   4.036   1.931   2.434
 1428SOL    HW3 5743   4.047   1.823   2.329
 1428SOL    MW4 5744   4.051   1.907   2.352
 1429SOL     OW 5745   4.272   2.047   2.232
 1429SOL    HW2 5746   4.267   2.142   2.244
 1429SOL    HW3 5747   4.190   2.014   2.270
 1429SOL    MW4 5748   4.260   2.056   2.238
 1430SOL     OW 5749   4.214   2.311   2.295
 1430SOL    HW2 5750   4.136   2.357   2.264
 1430SOL    HW3 5751   4.288   2.361   2.259
 1430SOL    MW4 5752   4.214   2.324   2.286
 1431SOL     OW 5753   3.987   2.437   2.218
 1431SOL    HW2 5754   3.994   2.523   2.259
 1431SOL    HW3 5755   3.915   2.393   2.264
 1431SOL    MW4 5756   3.979   2.442   2.229
 1432SOL     OW 5757   4.012   2.682   2.344
 1432SOL    HW2 5758   4.025   2.686   2.438
 1432SOL    HW3 5759   3.949   2.751   2.325
 1432SOL    MW4 5760   4.006   2.692   2.354
 1433SOL     OW 5761   4.234   2.839   2.231
 1433SOL    HW2 5762   4.157   2.795   2.267
 1433SOL    HW3 5763   4.308   2.799   2.277
 1433SOL    MW4 5764   4.233   2.828   2.242
 1434SOL     OW 5765   4.245   3.078   2.362
 1434SOL    HW2 5766   4.252   2.992   2.322
 1434SOL    HW3 5767   4.325   3.123   2.336
 1434SOL    MW4 5768   4.256   3.073   2.353
 1435SOL     OW 5769   4.023   3.200   2.231
 1435SOL    HW2 5770   4.039   3.290   2.259
 1435SOL    HW3 5771   4.100   3.152   2.261
 1435SOL    MW4 5772   4.035   3.206   2.238
 1436SOL     OW 5773   4.061   3.489   2.317
 1436SOL    HW2 5774   4.138   3.539   2.288
 1436SOL    HW3 5775   3.986   3.544   2.294
 1436SOL    MW4 5776   4.061   3.503   2.310
 1437SOL     OW 5777   4.278   3.639   2.257
 1437SOL    HW2 5778   4.253   3.731   2.272
 1437SOL    HW3 5779   4.289   3.632   2.162
 1437SOL    MW4 5780   4.276   3.651   2.246
 1438SOL     OW 5781   4.241   3.900   2.325
 1438SOL    HW2 5782   4.237   3.904   2.421
 1438SOL    HW3 5783   4.328   3.933   2.303
 1438SOL    MW4 5784   4.252   3.905   2.335
 1439SOL     OW 5785   3.992   3.981   2.238
 1439SOL    HW2 5786   4.072   3.959   2.287
 1439SOL    HW3 5787   4.017   3.970   2.146
 1439SOL    MW4 5788   4.006   3.977   2.233
 1440SOL     OW 5789   4.012   4.293   2.314
 1440SOL    HW2 5790   4.086   4.329   2.266
 1440SOL    HW3 5791   4.011   4.200   2.290
 1440SOL    MW4 5792   4.021   4.286   2.304
 1441SOL     OW 5793   4.243   4.416   2.216
 1441SOL    HW2 5794   4.253   4.494   2.270
 1441SOL    HW3 5795   4.317   4.361   2.239
 1441SOL    MW4 5796   4.254   4.419   2.226
 1442SOL     OW 5797   0.225   4.614   2.642
 1442SOL    HW2 5798   0.216   4.522   2.666
 1442SOL    HW3 5799   0.155   4.658   2.690
 1442SOL    MW4 5800   0.214   4.608   2.651
 1443SOL     OW 5801   0.006   0.064   2.745
 1443SOL    HW2 5802  -0.002   0.076   2.840
 1443SOL    HW3 5803   0.008   0.153   2.710
 1443SOL    MW4 5804   0.005   0.077   2.753
 1444SOL     OW 5805   4.487   0.317   2.651
 1444SOL    HW2 5806   4.572   0.352   2.678
 1444SOL    HW3 5807   4.484   0.332   2.556
 1444SOL    MW4 5808   4.498   0.324   2.642
 1445SOL     OW 5809   0.201   0.490   2.726
 1445SOL    HW2 5810   0.214   0.506   2.819
 1445SOL    HW3 5811   0.283   0.450   2.696
 1445SOL    MW4 5812   0.213   0.487   2.734
 1446SOL     OW 5813   0.211   0.749   2.631
 1446SOL    HW2 5814   0.299   0.782   2.648
 1446SOL    HW3 5815   0.206   0.668   2.682
 1446SOL    MW4 5816   0.222   0.742   2.640
 1447SOL     OW 5817   4.482   0.873   2.723
 1447SOL    HW2 5818   4.412   0.817   2.690
 1447SOL    HW3 5819   4.560   0.847   2.674
 1447SOL    MW4 5820   4.483   0.862   2.712
 1448SOL     OW 5821   4.480   1.142   2.636
 1448SOL    HW2 5822   4.565   1.173   2.667
 1448SOL    HW3 5823   4.472   1.053   2.672
 1448SOL    MW4 5824   4.490   1.134   2.645
 1449SOL     OW 5825   0.219   1.263   2.751
 1449SOL    HW2 5826   0.291   1.226   2.700
 1449SOL    HW3 5827   0.209   1.352   2.717
 1449SOL    MW4 5828   0.227   1.270   2.740
 1450SOL     OW 5829   0.178   1.508   2.635
 1450SOL    HW2 5830   0.258   1.545   2.671
 1450SOL    HW3 5831   0.110   1.572   2.658
 1450SOL    MW4 5832   0.179   1.521   2.643
 1451SOL     OW 5833   4.458   1.680   2.716
 1451SOL    HW2 5834   4.485   1.673   2.808
 1451SOL    HW3 5835   4.459   1.774   2.698
 1451SOL    MW4 5836   4.462   1.692   2.726
 1452SOL     OW 5837   4.467   1.950   2.642
 1452SOL    HW2 5838   4.555   1.975   2.670
 1452SOL    HW3 5839   4.471   1.954   2.547
 1452SOL    MW4 5840   4.479   1.954   2.633
 1453SOL     OW 5841   0.241   2.026   2.714
 1453SOL    HW2 5842   0.318   1.974   2.690
 1453SOL    HW3 5843   0.245   2.102   2.656
 1453SOL    MW4 5844   0.252   2.029   2.703
 1454SOL     OW 5845   0.241   2.318   2.603
 1454SOL    HW2 5846   0.317   2.354   2.648
 1454SOL    HW3 5847   0.166   2.359   2.648
 1454SOL    MW4 5848   0.241   2.328   2.615
 1455SOL     OW 5849   4.480   2.413   2.690
 1455SOL    HW2 5850   4.470   2.433   2.783
 1455SOL    HW3 5851   4.411   2.349   2.672
 1455SOL    MW4 5852   4.469   2.407   2.700
 1456SOL     OW 5853   4.485   2.684   2.626
 1456SOL    HW2 5854   4.405   2.720   2.665
 1456SOL    HW3 5855   4.486   2.592   2.655
 1456SOL    MW4 5856   4.474   2.676   2.635
 1457SOL     OW 5857   0.208   2.798   2.771
 1457SOL    HW2 5858   0.227   2.888   2.747
 1457SOL    HW3 5859   0.137   2.771   2.713
 1457SOL    MW4 5860   0.201   2.806   2.760
 1458SOL     OW 5861   0.245   3.055   2.687
 1458SOL    HW2 5862   0.317   3.114   2.707
 1458SOL    HW3 5863   0.225   3.071   2.594
 1458SOL    MW4 5864   0.252   3.065   2.677
 1459SOL     OW 5865   0.026   3.211   2.745
 1459SOL    HW2 5866  -0.043   3.151   2.715
 1459SOL    HW3 5867   0.102   3.154   2.760
 1459SOL    MW4 5868   0.027   3.195   2.743
 1460SOL     OW 5869   4.468   3.452   2.636
 1460SOL    HW2 5870   4.542   3.495   2.680
 1460SOL    HW3 5871   4.472   3.361   2.665
 1460SOL    MW4 5872   4.478   3.446   2.646
 1461SOL     OW 5873   0.177   3.597   2.737
 1461SOL    HW2 5874   0.188   3.604   2.832
 1461SOL    HW3 5875   0.253   3.546   2.708
 1461SOL    MW4 5876   0.189   3.591   2.746
 1462SOL     OW 5877   0.208   3.884   2.650
 1462SOL    HW2 5878   0.187   3.798   2.685
 1462SOL    HW3 5879   0.196   3.875   2.555
 1462SOL    MW4 5880   0.204   3.872   2.642
 1463SOL     OW 5881   4.483   4.025   2.772
 1463SOL    HW2 5882   4.482   4.099   2.711
 1463SOL    HW3 5883   4.568   3.983   2.757
 1463SOL    MW4 5884   4.494   4.029   2.762
 1464SOL     OW 5885   4.475   4.267   2.565
 1464SOL    HW2 5886   4.400   4.309   2.607
 1464SOL    HW3 5887   4.550   4.294   2.618
 1464SOL    MW4 5888   4.475   4.276   2.578
 1465SOL     OW 5889   0.208   4.334   2.715
 1465SOL    HW2 5890   0.223   4.321   2.809
 1465SOL    HW3 5891   0.288   4.302   2.673
 1465SOL    MW4 5892   0.220   4.328   2.722
 1466SOL     OW 5893   0.660   4.612   2.627
 1466SOL    HW2 5894   0.733   4.661   2.667
 1466SOL    HW3 5895   0.581   4.656   2.659
 1466SOL    MW4 5896   0.659   4.624   2.637
 1467SOL     OW 5897   0.432   0.103   2.711
 1467SOL    HW2 5898   0.425   0.112   2.806
 1467SOL    HW3 5899   0.362   0.043   2.687
 1467SOL    MW4 5900   0.422   0.097   2.721
 1468SOL     OW 5901   0.424   0.362   2.625
 1468SOL    HW2 5902   0.505   0.402   2.656
 1468SOL    HW3 5903   0.429   0.270   2.653
 1468SOL    MW4 5904   0.435   0.355   2.633
 1469SOL     OW 5905   0.661   0.468   2.706
 1469SOL    HW2 5906   0.675   0.452   2.799
 1469SOL    HW3 5907   0.744   0.443   2.665
 1469SOL    MW4 5908   0.674   0.463   2.713
 1470SOL     OW 5909   0.672   0.739   2.615
 1470SOL    HW2 5910   0.751   0.784   2.644
 1470SOL    HW3 5911   0.679   0.651   2.652
 1470SOL    MW4 5912   0.683   0.733   2.623
 1471SOL     OW 5913   0.446   0.886   2.702
 1471SOL    HW2 5914   0.459   0.977   2.675
 1471SOL    HW3 5915   0.531   0.845   2.688
 1471SOL    MW4 5916   0.459   0.893   2.697
 1472SOL     OW 5917   0.449   1.168   2.627
 1472SOL    HW2 5918   0.528   1.213   2.656
 1472SOL    HW3 5919   0.468   1.141   2.537
 1472SOL    MW4 5920   0.462   1.171   2.619
 1473SOL     OW 5921   0.674   1.296   2.722
 1473SOL    HW2 5922   0.664   1.289   2.817
 1473SOL    HW3 5923   0.762   1.264   2.705
 1473SOL    MW4 5924   0.684   1.291   2.733
 1474SOL     OW 5925   0.665   1.553   2.612
 1474SOL    HW2 5926   0.583   1.589   2.645
 1474SOL    HW3 5927   0.658   1.459   2.626
 1474SOL    MW4 5928   0.653   1.545   2.618
 1475SOL     OW 5929   0.418   1.622   2.718
 1475SOL    HW2 5930   0.424   1.635   2.813
 1475SOL    HW3 5931   0.433   1.709   2.681
 1475SOL    MW4 5932   0.421   1.635   2.726
 1476SOL     OW 5933   0.461   1.875   2.635
 1476SOL    HW2 5934   0.532   1.933   2.663
 1476SOL    HW3 5935   0.464   1.878   2.539
 1476SOL    MW4 5936   0.471   1.883   2.626
 1477SOL     OW 5937   0.663   2.027   2.719
 1477SOL    HW2 5938   0.684   2.051   2.809
 1477SOL    HW3 5939   0.732   1.965   2.694
 1477SOL    MW4 5940   0.675   2.022   2.728
 1478SOL     OW 5941   0.703   2.307   2.635
 1478SOL    HW2 5942   0.768   2.338   2.697
 1478SOL    HW3 5943   0.691   2.215   2.656
 1478SOL    MW4 5944   0.710   2.299   2.646
 1479SOL     OW 5945   0.448   2.434   2.732
 1479SOL    HW2 5946   0.441   2.528   2.712
 1479SOL    HW3 5947   0.535   2.410   2.701
 1479SOL    MW4 5948   0.459   2.443   2.725
 1480SOL     OW 5949   0.441   2.697   2.650
 1480SOL    HW2 5950   0.505   2.757   2.689
 1480SOL    HW3 5951   0.356   2.734   2.674
 1480SOL    MW4 5952   0.438   2.709   2.659
 1481SOL     OW 5953   0.626   2.850   2.778
 1481SOL    HW2 5954   0.635   2.870   2.871
 1481SOL    HW3 5955   0.642   2.933   2.733
 1481SOL    MW4 5956   0.629   2.863   2.784
 1482SOL     OW 5957   0.650   3.100   2.662
 1482SOL    HW2 5958   0.730   3.148   2.682
 1482SOL    HW3 5959   0.656   3.079   2.569
 1482SOL    MW4 5960   0.661   3.103   2.653
 1483SOL     OW 5961   0.444   3.238   2.773
 1483SOL    HW2 5962   0.464   3.246   2.866
 1483SOL    HW3 5963   0.523   3.200   2.735
 1483SOL    MW4 5964   0.457   3.234   2.780
 1484SOL     OW 5965   0.417   3.481   2.647
 1484SOL    HW2 5966   0.428   3.393   2.682
 1484SOL    HW3 5967   0.415   3.469   2.552
 1484SOL    MW4 5968   0.418   3.468   2.639
 1485SOL     OW 5969   0.660   3.617   2.695
 1485SOL    HW2 5970   0.671   3.600   2.789
 1485SOL    HW3 5971   0.569   3.592   2.677
 1485SOL    MW4 5972   0.650   3.611   2.705
 1486SOL     OW 5973   0.645   3.888   2.635
 1486SOL    HW2 5974   0.569   3.917   2.685
 1486SOL    HW3 5975   0.657   3.796   2.660
 1486SOL    MW4 5976   0.637   3.880   2.645
 1487SOL     OW 5977   0.435   3.987   2.761
 1487SOL    HW2 5978   0.445   4.069   2.713
 1487SOL    HW3 5979   0.354   3.949   2.726
 1487SOL    MW4 5980   0.426   3.993   2.750
 1488SOL     OW 5981   0.468   4.239   2.638
 1488SOL    HW2 5982   0.541   4.294   2.664
 1488SOL    HW3 5983   0.469   4.242   2.542
 1488SOL    MW4 5984   0.478   4.247   2.628
 1489SOL     OW 5985   0.684   4.378   2.766
 1489SOL    HW2 5986   0.760   4.335   2.727
 1489SOL    HW3 5987   0.675   4.460   2.718
 1489SOL    MW4 5988   0.693   4.383   2.754
 1490SOL     OW 5989   1.126   4.637   2.608
 1490SOL    HW2 5990   1.195   4.681   2.658
 1490SOL    HW3 5991   1.125   4.548   2.643
 1490SOL    MW4 5992   1.135   4.631   2.619
 1491SOL     OW 5993   0.882   0.087   2.725
 1491SOL    HW2 5994   0.886   0.113   2.817
 1491SOL    HW3 5995   0.966   0.045   2.708
 1491SOL    MW4 5996   0.894   0.085   2.735
 1492SOL     OW 5997   0.925   0.351   2.617
 1492SOL    HW2 5998   0.903   0.260   2.637
 1492SOL    HW3 5999   0.908   0.359   2.523
 1492SOL    MW4 6000   0.920   0.340   2.607
 1493SOL     OW 6001   1.126   0.486   2.766
 1493SOL    HW2 6002   1.134   0.569   2.719
 1493SOL    HW3 6003   1.047   0.446   2.731
 1493SOL    MW4 6004   1.117   0.492   2.755
 1494SOL     OW 6005   1.142   0.729   2.633
 1494SOL    HW2 6006   1.211   0.791   2.656
 1494SOL    HW3 6007   1.149   0.720   2.538
 1494SOL    MW4 6008   1.152   0.736   2.623
 1495SOL     OW 6009   0.902   0.857   2.718
 1495SOL    HW2 6010   0.922   0.885   2.807
 1495SOL    HW3 6011   0.980   0.811   2.688
 1495SOL    MW4 6012   0.915   0.854   2.726
 1496SOL     OW 6013   0.907   1.165   2.652
 1496SOL    HW2 6014   0.902   1.076   2.687
 1496SOL    HW3 6015   0.904   1.154   2.557
 1496SOL    MW4 6016   0.906   1.152   2.644
 1497SOL     OW 6017   1.154   1.251   2.717
 1497SOL    HW2 6018   1.153   1.341   2.684
 1497SOL    HW3 6019   1.066   1.217   2.699
 1497SOL    MW4 6020   1.142   1.258   2.710
 1498SOL     OW 6021   1.138   1.518   2.644
 1498SOL    HW2 6022   1.057   1.547   2.687
 1498SOL    HW3 6023   1.116   1.518   2.551
 1498SOL    MW4 6024   1.124   1.522   2.638
 1499SOL     OW 6025   0.900   1.632   2.759
 1499SOL    HW2 6026   0.878   1.661   2.848
 1499SOL    HW3 6027   0.818   1.600   2.723
 1499SOL    MW4 6028   0.887   1.631   2.766
 1500SOL     OW 6029   0.876   1.886   2.617
 1500SOL    HW2 6030   0.939   1.940   2.664
 1500SOL    HW3 6031   0.892   1.797   2.649
 1500SOL    MW4 6032   0.886   1.881   2.627
 1501SOL     OW 6033   1.076   2.039   2.728
 1501SOL    HW2 6034   1.152   1.989   2.697
 1501SOL    HW3 6035   1.099   2.130   2.713
 1501SOL    MW4 6036   1.089   2.044   2.722
 1502SOL     OW 6037   1.108   2.307   2.681
 1502SOL    HW2 6038   1.193   2.346   2.699
 1502SOL    HW3 6039   1.105   2.297   2.586
 1502SOL    MW4 6040   1.119   2.311   2.671
 1503SOL     OW 6041   0.885   2.447   2.795
 1503SOL    HW2 6042   0.871   2.532   2.754
 1503SOL    HW3 6043   0.967   2.415   2.757
 1503SOL    MW4 6044   0.894   2.454   2.785
 1504SOL     OW 6045   0.844   2.695   2.686
 1504SOL    HW2 6046   0.924   2.739   2.716
 1504SOL    HW3 6047   0.773   2.746   2.724
 1504SOL    MW4 6048   0.846   2.708   2.695
 1505SOL     OW 6049   1.083   2.832   2.711
 1505SOL    HW2 6050   1.106   2.825   2.803
 1505SOL    HW3 6051   1.159   2.795   2.665
 1505SOL    MW4 6052   1.096   2.826   2.717
 1506SOL     OW 6053   1.148   3.096   2.645
 1506SOL    HW2 6054   1.122   3.007   2.668
 1506SOL    HW3 6055   1.136   3.101   2.550
 1506SOL    MW4 6056   1.143   3.085   2.635
 1507SOL     OW 6057   0.919   3.208   2.751
 1507SOL    HW2 6058   0.903   3.286   2.698
 1507SOL    HW3 6059   1.006   3.179   2.723
 1507SOL    MW4 6060   0.928   3.215   2.740
 1508SOL     OW 6061   0.887   3.462   2.620
 1508SOL    HW2 6062   0.961   3.508   2.662
 1508SOL    HW3 6063   0.810   3.512   2.648
 1508SOL    MW4 6064   0.887   3.475   2.629
 1509SOL     OW 6065   1.102   3.599   2.741
 1509SOL    HW2 6066   1.101   3.626   2.833
 1509SOL    HW3 6067   1.100   3.681   2.692
 1509SOL    MW4 6068   1.102   3.613   2.747
 1510SOL     OW 6069   1.098   3.851   2.628
 1510SOL    HW2 6070   1.178   3.889   2.666
 1510SOL    HW3 6071   1.110   3.859   2.534
 1510SOL    MW4 6072   1.110   3.857   2.621
 1511SOL     OW 6073   0.893   4.008   2.721
 1511SOL    HW2 6074   0.958   3.963   2.667
 1511SOL    HW3 6075   0.809   3.970   2.694
 1511SOL    MW4 6076   0.890   3.997   2.710
 1512SOL     OW 6077   0.888   4.266   2.624
 1512SOL    HW2 6078   0.892   4.174   2.649
 1512SOL    HW3 6079   0.884   4.265   2.529
 1512SOL    MW4 6080   0.888   4.254   2.615
 1513SOL     OW 6081   1.144   4.351   2.681
 1513SOL    HW2 6082   1.137   4.378   2.772
 1513SOL    HW3 6083   1.055   4.327   2.656
 1513SOL    MW4 6084   1.131   4.351   2.690
 1514SOL     OW 6085   1.540   4.630   2.612
 1514SOL    HW2 6086   1.562   4.538   2.632
 1514SOL    HW3 6087   1.542   4.635   2.517
 1514SOL    MW4 6088   1.543   4.618   2.602
 1515SOL     OW 6089   1.354   0.096   2.727
 1515SOL    HW2 6090   1.343   0.186   2.696
 1515SOL    HW3 6091   1.428   0.062   2.678
 1515SOL    MW4 6092   1.362   0.103   2.717
 1516SOL     OW 6093   1.319   0.344   2.620
 1516SOL    HW2 6094   1.404   0.376   2.649
 1516SOL    HW3 6095   1.256   0.395   2.672
 1516SOL    MW4 6096   1.322   0.355   2.631
 1517SOL     OW 6097   1.564   0.470   2.751
 1517SOL    HW2 6098   1.628   0.423   2.698
 1517SOL    HW3 6099   1.568   0.560   2.720
 1517SOL    MW4 6100   1.573   0.476   2.740
 1518SOL     OW 6101   1.596   0.732   2.686
 1518SOL    HW2 6102   1.521   0.782   2.719
 1518SOL    HW3 6103   1.583   0.728   2.591
 1518SOL    MW4 6104   1.584   0.738   2.678
 1519SOL     OW 6105   1.373   0.900   2.714
 1519SOL    HW2 6106   1.344   0.922   2.802
 1519SOL    HW3 6107   1.375   0.983   2.667
 1519SOL    MW4 6108   1.369   0.914   2.719
 1520SOL     OW 6109   1.367   1.147   2.602
 1520SOL    HW2 6110   1.430   1.204   2.645
 1520SOL    HW3 6111   1.282   1.175   2.636
 1520SOL    MW4 6112   1.364   1.158   2.612
 1521SOL     OW 6113   1.568   1.284   2.716
 1521SOL    HW2 6114   1.560   1.299   2.810
 1521SOL    HW3 6115   1.654   1.244   2.705
 1521SOL    MW4 6116   1.578   1.281   2.727
 1522SOL     OW 6117   1.554   1.543   2.587
 1522SOL    HW2 6118   1.563   1.452   2.615
 1522SOL    HW3 6119   1.550   1.539   2.492
 1522SOL    MW4 6120   1.554   1.531   2.578
 1523SOL     OW 6121   1.365   1.635   2.758
 1523SOL    HW2 6122   1.431   1.607   2.695
 1523SOL    HW3 6123   1.285   1.592   2.730
 1523SOL    MW4 6124   1.363   1.626   2.746
 1524SOL     OW 6125   1.317   1.886   2.654
 1524SOL    HW2 6126   1.338   1.798   2.686
 1524SOL    HW3 6127   1.312   1.877   2.559
 1524SOL    MW4 6128   1.319   1.874   2.646
 1525SOL     OW 6129   1.514   2.059   2.737
 1525SOL    HW2 6130   1.593   2.015   2.706
 1525SOL    HW3 6131   1.442   1.999   2.715
 1525SOL    MW4 6132   1.515   2.046   2.730
 1526SOL     OW 6133   1.577   2.334   2.613
 1526SOL    HW2 6134   1.647   2.382   2.658
 1526SOL    HW3 6135   1.565   2.255   2.666
 1526SOL    MW4 6136   1.585   2.330   2.626
 1527SOL     OW 6137   1.355   2.435   2.754
 1527SOL    HW2 6138   1.346   2.522   2.716
 1527SOL    HW3 6139   1.428   2.395   2.706
 1527SOL    MW4 6140   1.363   2.441   2.743
 1528SOL     OW 6141   1.315   2.689   2.641
 1528SOL    HW2 6142   1.386   2.739   2.680
 1528SOL    HW3 6143   1.331   2.693   2.547
 1528SOL    MW4 6144   1.326   2.696   2.634
 1529SOL     OW 6145   1.547   2.806   2.757
 1529SOL    HW2 6146   1.544   2.804   2.853
 1529SOL    HW3 6147   1.635   2.777   2.736
 1529SOL    MW4 6148   1.558   2.802   2.767
 1530SOL     OW 6149   1.553   3.075   2.619
 1530SOL    HW2 6150   1.613   3.133   2.665
 1530SOL    HW3 6151   1.549   2.996   2.672
 1530SOL    MW4 6152   1.560   3.072   2.632
 1531SOL     OW 6153   1.354   3.229   2.750
 1531SOL    HW2 6154   1.417   3.194   2.688
 1531SOL    HW3 6155   1.270   3.191   2.724
 1531SOL    MW4 6156   1.351   3.220   2.739
 1532SOL     OW 6157   1.361   3.501   2.696
 1532SOL    HW2 6158   1.362   3.408   2.717
 1532SOL    HW3 6159   1.268   3.525   2.698
 1532SOL    MW4 6160   1.349   3.492   2.699
 1533SOL     OW 6161   1.587   3.632   2.778
 1533SOL    HW2 6162   1.647   3.582   2.722
 1533SOL    HW3 6163   1.503   3.586   2.770
 1533SOL    MW4 6164   1.584   3.619   2.769
 1534SOL     OW 6165   1.584   3.861   2.637
 1534SOL    HW2 6166   1.494   3.894   2.645
 1534SOL    HW3 6167   1.581   3.773   2.674
 1534SOL    MW4 6168   1.572   3.854   2.643
 1535SOL     OW 6169   1.336   3.975   2.684
 1535SOL    HW2 6170   1.334   3.982   2.780
 1535SOL    HW3 6171   1.335   4.066   2.654
 1535SOL    MW4 6172   1.336   3.988   2.693
 1536SOL     OW 6173   1.380   4.237   2.596
 1536SOL    HW2 6174   1.304   4.288   2.623
 1536SOL    HW3 6175   1.378   4.240   2.500
 1536SOL    MW4 6176   1.370   4.244   2.587
 1537SOL     OW 6177   1.590   4.382   2.715
 1537SOL    HW2 6178   1.585   4.367   2.809
 1537SOL    HW3 6179   1.518   4.330   2.678
 1537SOL    MW4 6180   1.580   4.373   2.722
 1538SOL     OW 6181   1.996   0.020   2.594
 1538SOL    HW2 6182   2.074   0.061   2.632
 1538SOL    HW3 6183   2.019   0.006   2.502
 1538SOL    MW4 6184   2.010   0.023   2.587
 1539SOL     OW 6185   1.762   0.109   2.708
 1539SOL    HW2 6186   1.840   0.070   2.669
 1539SOL    HW3 6187   1.690   0.055   2.675
 1539SOL    MW4 6188   1.763   0.097   2.699
 1540SOL     OW 6189   1.774   0.363   2.586
 1540SOL    HW2 6190   1.845   0.417   2.620
 1540SOL    HW3 6191   1.784   0.279   2.631
 1540SOL    MW4 6192   1.785   0.359   2.596
 1541SOL     OW 6193   2.009   0.475   2.693
 1541SOL    HW2 6194   2.096   0.442   2.669
 1541SOL    HW3 6195   2.015   0.569   2.679
 1541SOL    MW4 6196   2.021   0.483   2.688
 1542SOL     OW 6197   2.053   0.743   2.638
 1542SOL    HW2 6198   1.982   0.799   2.668
 1542SOL    HW3 6199   2.042   0.738   2.543
 1542SOL    MW4 6200   2.042   0.749   2.630
 1543SOL     OW 6201   1.826   0.873   2.738
 1543SOL    HW2 6202   1.813   0.962   2.705
 1543SOL    HW3 6203   1.753   0.823   2.702
 1543SOL    MW4 6204   1.815   0.878   2.729
 1544SOL     OW 6205   1.796   1.136   2.623
 1544SOL    HW2 6206   1.881   1.174   2.645
 1544SOL    HW3 6207   1.784   1.157   2.531
 1544SOL    MW4 6208   1.805   1.144   2.614
 1545SOL     OW 6209   2.011   1.274   2.719
 1545SOL    HW2 6210   2.017   1.293   2.812
 1545SOL    HW3 6211   2.090   1.224   2.699
 1545SOL    MW4 6212   2.022   1.270   2.729
 1546SOL     OW 6213   2.034   1.520   2.588
 1546SOL    HW2 6214   1.965   1.563   2.640
 1546SOL    HW3 6215   2.037   1.430   2.621
 1546SOL    MW4 6216   2.025   1.514   2.599
 1547SOL     OW 6217   1.780   1.659   2.692
 1547SOL    HW2 6218   1.759   1.676   2.784
 1547SOL    HW3 6219   1.696   1.638   2.651
 1547SOL    MW4 6220   1.766   1.659   2.699
 1548SOL     OW 6221   1.749   1.960   2.642
 1548SOL    HW2 6222   1.829   2.003   2.671
 1548SOL    HW3 6223   1.756   1.870   2.674
 1548SOL    MW4 6224   1.761   1.954   2.650
 1549SOL     OW 6225   1.985   2.073   2.720
 1549SOL    HW2 6226   1.991   2.067   2.816
 1549SOL    HW3 6227   1.999   2.165   2.701
 1549SOL    MW4 6228   1.988   2.084   2.730
 1550SOL     OW 6229   2.004   2.341   2.653
 1550SOL    HW2 6230   2.086   2.375   2.687
 1550SOL    HW3 6231   2.005   2.364   2.560
 1550SOL    MW4 6232   2.015   2.348   2.645
 1551SOL     OW 6233   1.779   2.477   2.742
 1551SOL    HW2 6234   1.782   2.473   2.838
 1551SOL    HW3 6235   1.849   2.419   2.713
 1551SOL    MW4 6236   1.789   2.469   2.751
 1552SOL     OW 6237   1.783   2.736   2.622
 1552SOL    HW2 6238   1.779   2.646   2.656
 1552SOL    HW3 6239   1.758   2.728   2.530
 1552SOL    MW4 6240   1.779   2.723   2.614
 1553SOL     OW 6241   2.013   2.852   2.711
 1553SOL    HW2 6242   2.092   2.818   2.668
 1553SOL    HW3 6243   1.942   2.798   2.676
 1553SOL    MW4 6244   2.014   2.840   2.701
 1554SOL     OW 6245   1.990   3.113   2.647
 1554SOL    HW2 6246   1.977   3.021   2.673
 1554SOL    HW3 6247   1.992   3.110   2.551
 1554SOL    MW4 6248   1.988   3.100   2.638
 1555SOL     OW 6249   1.741   3.229   2.712
 1555SOL    HW2 6250   1.759   3.317   2.677
 1555SOL    HW3 6251   1.820   3.179   2.692
 1555SOL    MW4 6252   1.754   3.234   2.705
 1556SOL     OW 6253   1.769   3.482   2.605
 1556SOL    HW2 6254   1.858   3.518   2.605
 1556SOL    HW3 6255   1.754   3.454   2.515
 1556SOL    MW4 6256   1.779   3.483   2.593
 1557SOL     OW 6257   2.005   3.608   2.647
 1557SOL    HW2 6258   1.986   3.631   2.738
 1557SOL    HW3 6259   2.092   3.569   2.650
 1557SOL    MW4 6260   2.014   3.606   2.659
 1558SOL     OW 6261   2.049   3.878   2.606
 1558SOL    HW2 6262   1.973   3.923   2.643
 1558SOL    HW3 6263   2.030   3.785   2.618
 1558SOL    MW4 6264   2.036   3.871   2.612
 1559SOL     OW 6265   1.822   3.993   2.695
 1559SOL    HW2 6266   1.812   4.087   2.679
 1559SOL    HW3 6267   1.739   3.955   2.665
 1559SOL    MW4 6268   1.810   4.000   2.689
 1560SOL     OW 6269   1.811   4.258   2.638
 1560SOL    HW2 6270   1.730   4.298   2.670
 1560SOL    HW3 6271   1.807   4.271   2.543
 1560SOL    MW4 6272   1.799   4.265   2.630
 1561SOL     OW 6273   2.024   4.411   2.730
 1561SOL    HW2 6274   1.951   4.353   2.706
 1561SOL    HW3 6275   2.003   4.495   2.689
 1561SOL    MW4 6276   2.011   4.415   2.722
 1562SOL     OW 6277   2.439   0.029   2.597
 1562SOL    HW2 6278   2.518   0.067   2.635
 1562SOL    HW3 6279   2.449   0.040   2.502
 1562SOL    MW4 6280   2.450   0.036   2.589
 1563SOL     OW 6281   2.220   0.142   2.702
 1563SOL    HW2 6282   2.245   0.136   2.794
 1563SOL    HW3 6283   2.287   0.091   2.656
 1563SOL    MW4 6284   2.232   0.134   2.708
 1564SOL     OW 6285   2.271   0.412   2.596
 1564SOL    HW2 6286   2.261   0.328   2.639
 1564SOL    HW3 6287   2.268   0.391   2.502
 1564SOL    MW4 6288   2.270   0.398   2.589
 1565SOL     OW 6289   2.512   0.496   2.704
 1565SOL    HW2 6290   2.525   0.587   2.675
 1565SOL    HW3 6291   2.437   0.465   2.653
 1565SOL    MW4 6292   2.504   0.504   2.693
 1566SOL     OW 6293   2.533   0.755   2.604
 1566SOL    HW2 6294   2.458   0.783   2.656
 1566SOL    HW3 6295   2.508   0.771   2.513
 1566SOL    MW4 6296   2.520   0.761   2.599
 1567SOL     OW 6297   2.305   0.850   2.724
 1567SOL    HW2 6298   2.294   0.855   2.819
 1567SOL    HW3 6299   2.223   0.813   2.692
 1567SOL    MW4 6300   2.293   0.846   2.732
 1568SOL     OW 6301   2.227   1.105   2.658
 1568SOL    HW2 6302   2.260   1.021   2.688
 1568SOL    HW3 6303   2.221   1.096   2.562
 1568SOL    MW4 6304   2.231   1.093   2.649
 1569SOL     OW 6305   2.447   1.274   2.705
 1569SOL    HW2 6306   2.522   1.226   2.670
 1569SOL    HW3 6307   2.371   1.220   2.684
 1569SOL    MW4 6308   2.447   1.261   2.697
 1570SOL     OW 6309   2.437   1.555   2.592
 1570SOL    HW2 6310   2.370   1.604   2.639
 1570SOL    HW3 6311   2.416   1.463   2.609
 1570SOL    MW4 6312   2.425   1.549   2.600
 1571SOL     OW 6313   2.226   1.666   2.712
 1571SOL    HW2 6314   2.225   1.758   2.686
 1571SOL    HW3 6315   2.159   1.625   2.657
 1571SOL    MW4 6316   2.217   1.672   2.702
 1572SOL     OW 6317   2.211   1.932   2.628
 1572SOL    HW2 6318   2.120   1.950   2.651
 1572SOL    HW3 6319   2.218   1.959   2.536
 1572SOL    MW4 6320   2.200   1.938   2.619
 1573SOL     OW 6321   2.406   2.058   2.762
 1573SOL    HW2 6322   2.430   2.138   2.716
 1573SOL    HW3 6323   2.335   2.019   2.710
 1573SOL    MW4 6324   2.400   2.063   2.749
 1574SOL     OW 6325   2.456   2.303   2.642
 1574SOL    HW2 6326   2.543   2.339   2.661
 1574SOL    HW3 6327   2.448   2.310   2.547
 1574SOL    MW4 6328   2.466   2.309   2.632
 1575SOL     OW 6329   2.234   2.472   2.729
 1575SOL    HW2 6330   2.237   2.457   2.824
 1575SOL    HW3 6331   2.316   2.437   2.696
 1575SOL    MW4 6332   2.245   2.465   2.737
 1576SOL     OW 6333   2.214   2.720   2.603
 1576SOL    HW2 6334   2.304   2.749   2.621
 1576SOL    HW3 6335   2.206   2.638   2.651
 1576SOL    MW4 6336   2.225   2.713   2.612
 1577SOL     OW 6337   2.445   2.844   2.706
 1577SOL    HW2 6338   2.529   2.800   2.691
 1577SOL    HW3 6339   2.465   2.937   2.694
 1577SOL    MW4 6340   2.459   2.851   2.702
 1578SOL     OW 6341   2.453   3.112   2.630
 1578SOL    HW2 6342   2.373   3.156   2.659
 1578SOL    HW3 6343   2.453   3.123   2.535
 1578SOL    MW4 6344   2.442   3.120   2.622
 1579SOL     OW 6345   2.227   3.246   2.694
 1579SOL    HW2 6346   2.250   3.241   2.787
 1579SOL    HW3 6347   2.138   3.211   2.690
 1579SOL    MW4 6348   2.218   3.241   2.706
 1580SOL     OW 6349   2.264   3.510   2.613
 1580SOL    HW2 6350   2.351   3.537   2.641
 1580SOL    HW3 6351   2.256   3.420   2.644
 1580SOL    MW4 6352   2.274   3.501   2.621
 1581SOL     OW 6353   2.515   3.623   2.684
 1581SOL    HW2 6354   2.502   3.619   2.779
 1581SOL    HW3 6355   2.528   3.716   2.666
 1581SOL    MW4 6356   2.515   3.634   2.694
 1582SOL     OW 6357   2.520   3.902   2.591
 1582SOL    HW2 6358   2.588   3.938   2.649
 1582SOL    HW3 6359   2.438   3.923   2.636
 1582SOL    MW4 6360   2.518   3.910   2.605
 1583SOL     OW 6361   2.274   3.985   2.699
 1583SOL    HW2 6362   2.265   3.987   2.795
 1583SOL    HW3 6363   2.198   3.936   2.669
 1583SOL    MW4 6364   2.263   3.979   2.708
 1584SOL     OW 6365   2.242   4.267   2.609
 1584SOL    HW2 6366   2.247   4.179   2.646
 1584SOL    HW3 6367   2.174   4.311   2.659
 1584SOL    MW4 6368   2.234   4.261   2.620
 1585SOL     OW 6369   2.442   4.447   2.729
 1585SOL    HW2 6370   2.367   4.408   2.684
 1585SOL    HW3 6371   2.443   4.538   2.699
 1585SOL    MW4 6372   2.432   4.454   2.719
 1586SOL     OW 6373   2.915   4.659   2.625
 1586SOL    HW2 6374   2.984   4.702   2.674
 1586SOL    HW3 6375   2.936   4.677   2.533
 1586SOL    MW4 6376   2.927   4.667   2.619
 1587SOL     OW 6377   2.671   0.112   2.692
 1587SOL    HW2 6378   2.689   0.130   2.784
 1587SOL    HW3 6379   2.748   0.065   2.661
 1587SOL    MW4 6380   2.684   0.108   2.700
 1588SOL     OW 6381   2.710   0.356   2.574
 1588SOL    HW2 6382   2.699   0.267   2.605
 1588SOL    HW3 6383   2.647   0.407   2.625
 1588SOL    MW4 6384   2.700   0.351   2.585
 1589SOL     OW 6385   2.910   0.508   2.713
 1589SOL    HW2 6386   2.914   0.601   2.693
 1589SOL    HW3 6387   2.832   0.477   2.668
 1589SOL    MW4 6388   2.900   0.516   2.705
 1590SOL     OW 6389   2.934   0.761   2.603
 1590SOL    HW2 6390   3.017   0.805   2.624
 1590SOL    HW3 6391   2.868   0.812   2.651
 1590SOL    MW4 6392   2.936   0.774   2.612
 1591SOL     OW 6393   2.740   0.909   2.711
 1591SOL    HW2 6394   2.718   0.916   2.804
 1591SOL    HW3 6395   2.678   0.844   2.677
 1591SOL    MW4 6396   2.729   0.901   2.719
 1592SOL     OW 6397   2.673   1.159   2.614
 1592SOL    HW2 6398   2.752   1.204   2.640
 1592SOL    HW3 6399   2.686   1.068   2.642
 1592SOL    MW4 6400   2.685   1.153   2.621
 1593SOL     OW 6401   2.909   1.299   2.687
 1593SOL    HW2 6402   2.905   1.279   2.781
 1593SOL    HW3 6403   2.996   1.271   2.660
 1593SOL    MW4 6404   2.920   1.293   2.696
 1594SOL     OW 6405   2.916   1.578   2.638
 1594SOL    HW2 6406   2.826   1.611   2.638
 1594SOL    HW3 6407   2.910   1.488   2.668
 1594SOL    MW4 6408   2.904   1.570   2.642
 1595SOL     OW 6409   2.666   1.687   2.669
 1595SOL    HW2 6410   2.670   1.691   2.765
 1595SOL    HW3 6411   2.583   1.643   2.650
 1595SOL    MW4 6412   2.656   1.681   2.679
 1596SOL     OW 6413   2.645   1.966   2.663
 1596SOL    HW2 6414   2.650   1.870   2.664
 1596SOL    HW3 6415   2.567   1.987   2.714
 1596SOL    MW4 6416   2.635   1.956   2.670
 1597SOL     OW 6417   2.876   2.096   2.755
 1597SOL    HW2 6418   2.876   2.177   2.703
 1597SOL    HW3 6419   2.809   2.042   2.713
 1597SOL    MW4 6420   2.867   2.100   2.742
 1598SOL     OW 6421   2.929   2.344   2.613
 1598SOL    HW2 6422   3.000   2.390   2.659
 1598SOL    HW3 6423   2.851   2.396   2.634
 1598SOL    MW4 6424   2.928   2.357   2.622
 1599SOL     OW 6425   2.673   2.437   2.707
 1599SOL    HW2 6426   2.693   2.432   2.801
 1599SOL    HW3 6427   2.670   2.531   2.688
 1599SOL    MW4 6428   2.675   2.449   2.717
 1600SOL     OW 6429   2.664   2.703   2.615
 1600SOL    HW2 6430   2.755   2.731   2.627
 1600SOL    HW3 6431   2.650   2.704   2.521
 1600SOL    MW4 6432   2.674   2.707   2.604
 1601SOL     OW 6433   2.922   2.806   2.680
 1601SOL    HW2 6434   2.918   2.811   2.775
 1601SOL    HW3 6435   2.922   2.897   2.651
 1601SOL    MW4 6436   2.921   2.818   2.689
 1602SOL     OW 6437   2.932   3.064   2.600
 1602SOL    HW2 6438   2.856   3.117   2.624
 1602SOL    HW3 6439   2.928   3.057   2.505
 1602SOL    MW4 6440   2.922   3.070   2.591
 1603SOL     OW 6441   2.717   3.197   2.694
 1603SOL    HW2 6442   2.731   3.290   2.678
 1603SOL    HW3 6443   2.628   3.180   2.663
 1603SOL    MW4 6444   2.707   3.207   2.688
 1604SOL     OW 6445   2.742   3.468   2.595
 1604SOL    HW2 6446   2.673   3.523   2.631
 1604SOL    HW3 6447   2.728   3.470   2.500
 1604SOL    MW4 6448   2.731   3.475   2.587
 1605SOL     OW 6449   2.943   3.624   2.713
 1605SOL    HW2 6450   2.927   3.608   2.806
 1605SOL    HW3 6451   2.875   3.574   2.668
 1605SOL    MW4 6452   2.932   3.615   2.719
 1606SOL     OW 6453   2.955   3.875   2.609
 1606SOL    HW2 6454   3.032   3.914   2.650
 1606SOL    HW3 6455   2.942   3.793   2.657
 1606SOL    MW4 6456   2.964   3.869   2.621
 1607SOL     OW 6457   2.735   3.988   2.725
 1607SOL    HW2 6458   2.723   4.078   2.692
 1607SOL    HW3 6459   2.819   3.961   2.687
 1607SOL    MW4 6460   2.745   3.997   2.715
 1608SOL     OW 6461   2.652   4.260   2.674
 1608SOL    HW2 6462   2.724   4.317   2.699
 1608SOL    HW3 6463   2.575   4.317   2.673
 1608SOL    MW4 6464   2.651   4.275   2.677
 1609SOL     OW 6465   2.906   4.387   2.697
 1609SOL    HW2 6466   2.925   4.393   2.791
 1609SOL    HW3 6467   2.913   4.477   2.665
 1609SOL    MW4 6468   2.909   4.399   2.705
 1610SOL     OW 6469   3.364   0.024   2.639
 1610SOL    HW2 6470   3.357  -0.070   2.657
 1610SOL    HW3 6471   3.290   0.063   2.685
 1610SOL    MW4 6472   3.353   0.017   2.647
 1611SOL     OW 6473   3.125   0.119   2.738
 1611SOL    HW2 6474   3.133   0.123   2.833
 1611SOL    HW3 6475   3.119   0.211   2.710
 1611SOL    MW4 6476   3.125   0.132   2.747
 1612SOL     OW 6477   3.126   0.381   2.611
 1612SOL    HW2 6478   3.046   0.425   2.638
 1612SOL    HW3 6479   3.118   0.372   2.516
 1612SOL    MW4 6480   3.114   0.385   2.602
 1613SOL     OW 6481   3.351   0.517   2.729
 1613SOL    HW2 6482   3.352   0.604   2.691
 1613SOL    HW3 6483   3.282   0.470   2.682
 1613SOL    MW4 6484   3.342   0.522   2.717
 1614SOL     OW 6485   3.412   0.796   2.633
 1614SOL    HW2 6486   3.483   0.839   2.681
 1614SOL    HW3 6487   3.433   0.811   2.541
 1614SOL    MW4 6488   3.424   0.804   2.627
 1615SOL     OW 6489   3.160   0.915   2.691
 1615SOL    HW2 6490   3.150   0.920   2.786
 1615SOL    HW3 6491   3.247   0.877   2.678
 1615SOL    MW4 6492   3.170   0.911   2.702
 1616SOL     OW 6493   3.165   1.205   2.594
 1616SOL    HW2 6494   3.166   1.115   2.626
 1616SOL    HW3 6495   3.130   1.199   2.505
 1616SOL    MW4 6496   3.160   1.193   2.587
 1617SOL     OW 6497   3.375   1.311   2.749
 1617SOL    HW2 6498   3.339   1.297   2.836
 1617SOL    HW3 6499   3.312   1.269   2.690
 1617SOL    MW4 6500   3.362   1.303   2.752
 1618SOL     OW 6501   3.336   1.572   2.590
 1618SOL    HW2 6502   3.265   1.616   2.637
 1618SOL    HW3 6503   3.338   1.484   2.627
 1618SOL    MW4 6504   3.327   1.566   2.601
 1619SOL     OW 6505   3.137   1.707   2.733
 1619SOL    HW2 6506   3.121   1.795   2.701
 1619SOL    HW3 6507   3.065   1.655   2.698
 1619SOL    MW4 6508   3.126   1.712   2.724
 1620SOL     OW 6509   3.102   1.961   2.627
 1620SOL    HW2 6510   3.187   1.998   2.649
 1620SOL    HW3 6511   3.040   2.014   2.677
 1620SOL    MW4 6512   3.105   1.973   2.636
 1621SOL     OW 6513   3.342   2.056   2.698
 1621SOL    HW2 6514   3.352   2.050   2.793
 1621SOL    HW3 6515   3.361   2.148   2.678
 1621SOL    MW4 6516   3.346   2.068   2.708
 1622SOL     OW 6517   3.382   2.313   2.625
 1622SOL    HW2 6518   3.453   2.371   2.652
 1622SOL    HW3 6519   3.375   2.325   2.531
 1622SOL    MW4 6520   3.390   2.323   2.616
 1623SOL     OW 6521   3.165   2.450   2.721
 1623SOL    HW2 6522   3.176   2.530   2.671
 1623SOL    HW3 6523   3.243   2.398   2.700
 1623SOL    MW4 6524   3.177   2.453   2.712
 1624SOL     OW 6525   3.164   2.697   2.588
 1624SOL    HW2 6526   3.230   2.736   2.645
 1624SOL    HW3 6527   3.080   2.727   2.624
 1624SOL    MW4 6528   3.162   2.706   2.600
 1625SOL     OW 6529   3.368   2.817   2.727
 1625SOL    HW2 6530   3.366   2.844   2.819
 1625SOL    HW3 6531   3.453   2.774   2.717
 1625SOL    MW4 6532   3.379   2.815   2.738
 1626SOL     OW 6533   3.378   3.088   2.626
 1626SOL    HW2 6534   3.381   3.000   2.664
 1626SOL    HW3 6535   3.349   3.074   2.536
 1626SOL    MW4 6536   3.375   3.074   2.619
 1627SOL     OW 6537   3.129   3.184   2.747
 1627SOL    HW2 6538   3.210   3.150   2.709
 1627SOL    HW3 6539   3.059   3.137   2.703
 1627SOL    MW4 6540   3.130   3.174   2.736
 1628SOL     OW 6541   3.172   3.454   2.650
 1628SOL    HW2 6542   3.144   3.374   2.696
 1628SOL    HW3 6543   3.098   3.514   2.662
 1628SOL    MW4 6544   3.158   3.451   2.657
 1629SOL     OW 6545   3.374   3.645   2.743
 1629SOL    HW2 6546   3.389   3.626   2.836
 1629SOL    HW3 6547   3.326   3.570   2.710
 1629SOL    MW4 6548   3.370   3.633   2.751
 1630SOL     OW 6549   3.407   3.927   2.676
 1630SOL    HW2 6550   3.385   3.835   2.688
 1630SOL    HW3 6551   3.414   3.937   2.581
 1630SOL    MW4 6552   3.405   3.916   2.665
 1631SOL     OW 6553   3.159   4.025   2.731
 1631SOL    HW2 6554   3.153   4.114   2.698
 1631SOL    HW3 6555   3.248   3.997   2.711
 1631SOL    MW4 6556   3.170   4.033   2.724
 1632SOL     OW 6557   3.138   4.284   2.620
 1632SOL    HW2 6558   3.049   4.310   2.646
 1632SOL    HW3 6559   3.136   4.284   2.525
 1632SOL    MW4 6560   3.126   4.287   2.611
 1633SOL     OW 6561   3.337   4.438   2.721
 1633SOL    HW2 6562   3.333   4.442   2.816
 1633SOL    HW3 6563   3.265   4.379   2.696
 1633SOL    MW4 6564   3.327   4.431   2.730
 1634SOL     OW 6565   3.824   4.663   2.663
 1634SOL    HW2 6566   3.815   4.580   2.709
 1634SOL    HW3 6567   3.756   4.719   2.699
 1634SOL    MW4 6568   3.814   4.659   2.674
 1635SOL     OW 6569   3.591   0.112   2.761
 1635SOL    HW2 6570   3.597   0.202   2.731
 1635SOL    HW3 6571   3.509   0.079   2.724
 1635SOL    MW4 6572   3.581   0.119   2.752
 1636SOL     OW 6573   3.579   0.368   2.628
 1636SOL    HW2 6574   3.653   0.422   2.655
 1636SOL    HW3 6575   3.504   0.405   2.675
 1636SOL    MW4 6576   3.579   0.380   2.638
 1637SOL     OW 6577   3.799   0.516   2.716
 1637SOL    HW2 6578   3.802   0.528   2.811
 1637SOL    HW3 6579   3.883   0.476   2.693
 1637SOL    MW4 6580   3.810   0.513   2.725
 1638SOL     OW 6581   3.833   0.782   2.627
 1638SOL    HW2 6582   3.764   0.834   2.670
 1638SOL    HW3 6583   3.816   0.693   2.656
 1638SOL    MW4 6584   3.821   0.777   2.636
 1639SOL     OW 6585   3.637   0.909   2.752
 1639SOL    HW2 6586   3.638   0.908   2.848
 1639SOL    HW3 6587   3.631   1.001   2.729
 1639SOL    MW4 6588   3.636   0.921   2.762
 1640SOL     OW 6589   3.582   1.172   2.635
 1640SOL    HW2 6590   3.661   1.218   2.662
 1640SOL    HW3 6591   3.511   1.219   2.678
 1640SOL    MW4 6592   3.583   1.184   2.644
 1641SOL     OW 6593   3.806   1.274   2.716
 1641SOL    HW2 6594   3.891   1.233   2.701
 1641SOL    HW3 6595   3.824   1.368   2.711
 1641SOL    MW4 6596   3.819   1.281   2.713
 1642SOL     OW 6597   3.788   1.546   2.656
 1642SOL    HW2 6598   3.864   1.585   2.700
 1642SOL    HW3 6599   3.713   1.574   2.708
 1642SOL    MW4 6600   3.788   1.555   2.669
 1643SOL     OW 6601   3.537   1.662   2.766
 1643SOL    HW2 6602   3.550   1.743   2.716
 1643SOL    HW3 6603   3.469   1.615   2.718
 1643SOL    MW4 6604   3.530   1.666   2.753
 1644SOL     OW 6605   3.573   1.898   2.644
 1644SOL    HW2 6606   3.503   1.961   2.662
 1644SOL    HW3 6607   3.587   1.904   2.549
 1644SOL    MW4 6608   3.566   1.907   2.634
 1645SOL     OW 6609   3.813   2.018   2.748
 1645SOL    HW2 6610   3.886   1.982   2.697
 1645SOL    HW3 6611   3.735   1.981   2.708
 1645SOL    MW4 6612   3.812   2.008   2.736
 1646SOL     OW 6613   3.804   2.284   2.655
 1646SOL    HW2 6614   3.802   2.190   2.675
 1646SOL    HW3 6615   3.815   2.287   2.560
 1646SOL    MW4 6616   3.805   2.272   2.645
 1647SOL     OW 6617   3.595   2.444   2.735
 1647SOL    HW2 6618   3.594   2.426   2.830
 1647SOL    HW3 6619   3.663   2.386   2.701
 1647SOL    MW4 6620   3.604   2.434   2.743
 1648SOL     OW 6621   3.605   2.687   2.641
 1648SOL    HW2 6622   3.610   2.600   2.680
 1648SOL    HW3 6623   3.596   2.670   2.547
 1648SOL    MW4 6624   3.604   2.673   2.634
 1649SOL     OW 6625   3.817   2.829   2.752
 1649SOL    HW2 6626   3.887   2.780   2.709
 1649SOL    HW3 6627   3.736   2.790   2.717
 1649SOL    MW4 6628   3.815   2.817   2.742
 1650SOL     OW 6629   3.833   3.092   2.638
 1650SOL    HW2 6630   3.762   3.144   2.675
 1650SOL    HW3 6631   3.828   3.008   2.683
 1650SOL    MW4 6632   3.823   3.088   2.649
 1651SOL     OW 6633   3.616   3.255   2.691
 1651SOL    HW2 6634   3.602   3.341   2.650
 1651SOL    HW3 6635   3.538   3.204   2.667
 1651SOL    MW4 6636   3.604   3.260   2.683
 1652SOL     OW 6637   3.579   3.518   2.607
 1652SOL    HW2 6638   3.657   3.557   2.645
 1652SOL    HW3 6639   3.506   3.563   2.650
 1652SOL    MW4 6640   3.579   3.529   2.617
 1653SOL     OW 6641   3.816   3.641   2.739
 1653SOL    HW2 6642   3.894   3.600   2.701
 1653SOL    HW3 6643   3.820   3.732   2.710
 1653SOL    MW4 6644   3.827   3.647   2.730
 1654SOL     OW 6645   3.805   3.895   2.637
 1654SOL    HW2 6646   3.892   3.934   2.648
 1654SOL    HW3 6647   3.748   3.949   2.692
 1654SOL    MW4 6648   3.809   3.907   2.646
 1655SOL     OW 6649   3.638   4.062   2.770
 1655SOL    HW2 6650   3.649   4.151   2.735
 1655SOL    HW3 6651   3.546   4.040   2.752
 1655SOL    MW4 6652   3.627   4.071   2.763
 1656SOL     OW 6653   3.580   4.315   2.682
 1656SOL    HW2 6654   3.498   4.354   2.712
 1656SOL    HW3 6655   3.572   4.313   2.587
 1656SOL    MW4 6656   3.568   4.320   2.673
 1657SOL     OW 6657   3.832   4.400   2.771
 1657SOL    HW2 6658   3.894   4.366   2.706
 1657SOL    HW3 6659   3.746   4.374   2.738
 1657SOL    MW4 6660   3.828   4.392   2.758
 1658SOL     OW 6661   4.244   4.636   2.637
 1658SOL    HW2 6662   4.188   4.697   2.684
 1658SOL    HW3 6663   4.333   4.658   2.666
 1658SOL    MW4 6664   4.249   4.647   2.647
 1659SOL     OW 6665   4.040   0.128   2.760
 1659SOL    HW2 6666   4.038   0.130   2.856
 1659SOL    HW3 6667   3.968   0.070   2.736
 1659SOL    MW4 6668   4.030   0.120   2.770
 1660SOL     OW 6669   4.038   0.398   2.633
 1660SOL    HW2 6670   4.028   0.308   2.665
 1660SOL    HW3 6671   4.033   0.390   2.538
 1660SOL    MW4 6672   4.036   0.385   2.625
 1661SOL     OW 6673   4.285   0.464   2.773
 1661SOL    HW2 6674   4.207   0.435   2.726
 1661SOL    HW3 6675   4.355   0.405   2.743
 1661SOL    MW4 6676   4.284   0.453   2.763
 1662SOL     OW 6677   4.281   0.708   2.660
 1662SOL    HW2 6678   4.294   0.622   2.699
 1662SOL    HW3 6679   4.284   0.693   2.565
 1662SOL    MW4 6680   4.283   0.695   2.652
 1663SOL     OW 6681   4.063   0.884   2.737
 1663SOL    HW2 6682   4.135   0.822   2.726
 1663SOL    HW3 6683   3.988   0.841   2.695
 1663SOL    MW4 6684   4.063   0.870   2.730
 1664SOL     OW 6685   4.043   1.146   2.654
 1664SOL    HW2 6686   4.108   1.189   2.709
 1664SOL    HW3 6687   4.045   1.054   2.683
 1664SOL    MW4 6688   4.052   1.139   2.665
 1665SOL     OW 6689   4.252   1.302   2.759
 1665SOL    HW2 6690   4.236   1.390   2.725
 1665SOL    HW3 6691   4.313   1.263   2.697
 1665SOL    MW4 6692   4.258   1.308   2.747
 1666SOL     OW 6693   4.220   1.563   2.638
 1666SOL    HW2 6694   4.296   1.608   2.676
 1666SOL    HW3 6695   4.247   1.542   2.549
 1666SOL    MW4 6696   4.234   1.566   2.631
 1667SOL     OW 6697   4.005   1.683   2.743
 1667SOL    HW2 6698   4.031   1.678   2.835
 1667SOL    HW3 6699   4.072   1.632   2.696
 1667SOL    MW4 6700   4.017   1.675   2.749
 1668SOL     OW 6701   4.037   1.925   2.607
 1668SOL    HW2 6702   4.109   1.960   2.659
 1668SOL    HW3 6703   4.017   1.840   2.647
 1668SOL    MW4 6704   4.044   1.918   2.619
 1669SOL     OW 6705   4.243   2.063   2.749
 1669SOL    HW2 6706   4.236   2.141   2.693
 1669SOL    HW3 6707   4.329   2.027   2.729
 1669SOL    MW4 6708   4.253   2.069   2.739
 1670SOL     OW 6709   4.243   2.288   2.578
 1670SOL    HW2 6710   4.190   2.361   2.610
 1670SOL    HW3 6711   4.243   2.297   2.483
 1670SOL    MW4 6712   4.236   2.298   2.570
 1671SOL     OW 6713   4.044   2.451   2.727
 1671SOL    HW2 6714   4.046   2.453   2.823
 1671SOL    HW3 6715   3.971   2.392   2.706
 1671SOL    MW4 6716   4.035   2.443   2.737
 1672SOL     OW 6717   4.025   2.714   2.608
 1672SOL    HW2 6718   4.090   2.758   2.663
 1672SOL    HW3 6719   4.023   2.624   2.641
 1672SOL    MW4 6720   4.034   2.708   2.620
 1673SOL     OW 6721   4.248   2.809   2.735
 1673SOL    HW2 6722   4.257   2.829   2.828
 1673SOL    HW3 6723   4.260   2.893   2.691
 1673SOL    MW4 6724   4.251   2.823   2.741
 1674SOL     OW 6725   4.292   3.081   2.628
 1674SOL    HW2 6726   4.224   3.132   2.673
 1674SOL    HW3 6727   4.271   3.090   2.535
 1674SOL    MW4 6728   4.280   3.089   2.622
 1675SOL     OW 6729   4.076   3.246   2.715
 1675SOL    HW2 6730   4.056   3.334   2.685
 1675SOL    HW3 6731   4.004   3.192   2.681
 1675SOL    MW4 6732   4.063   3.250   2.706
 1676SOL     OW 6733   4.051   3.501   2.595
 1676SOL    HW2 6734   4.120   3.557   2.632
 1676SOL    HW3 6735   4.066   3.503   2.501
 1676SOL    MW4 6736   4.062   3.509   2.588
 1677SOL     OW 6737   4.278   3.624   2.723
 1677SOL    HW2 6738   4.290   3.633   2.818
 1677SOL    HW3 6739   4.348   3.564   2.696
 1677SOL    MW4 6740   4.289   3.617   2.732
 1678SOL     OW 6741   4.267   3.893   2.603
 1678SOL    HW2 6742   4.276   3.802   2.632
 1678SOL    HW3 6743   4.324   3.943   2.661
 1678SOL    MW4 6744   4.276   3.888   2.614
 1679SOL     OW 6745   4.031   4.018   2.705
 1679SOL    HW2 6746   4.035   4.002   2.800
 1679SOL    HW3 6747   4.121   4.006   2.675
 1679SOL    MW4 6748   4.043   4.014   2.714
 1680SOL     OW 6749   4.020   4.271   2.602
 1680SOL    HW2 6750   4.019   4.178   2.625
 1680SOL    HW3 6751   4.009   4.272   2.507
 1680SOL    MW4 6752   4.018   4.259   2.592
 1681SOL     OW 6753   4.254   4.365   2.716
 1681SOL    HW2 6754   4.176   4.325   2.678
 1681SOL    HW3 6755   4.252   4.455   2.685
 1681SOL    MW4 6756   4.243   4.371   2.707
 1682SOL     OW 6757   0.201   4.650   3.077
 1682SOL    HW2 6758   0.207   4.653   3.172
 1682SOL    HW3 6759   0.122   4.701   3.057
 1682SOL    MW4 6760   0.191   4.657   3.087
 1683SOL     OW 6761   4.471   0.130   3.010
 1683SOL    HW2 6762   4.397   0.095   3.060
 1683SOL    HW3 6763   4.480   0.221   3.041
 1683SOL    MW4 6764   4.462   0.138   3.021
 1684SOL     OW 6765   4.489   0.383   3.132
 1684SOL    HW2 6766   4.478   0.370   3.226
 1684SOL    HW3 6767   4.405   0.419   3.103
 1684SOL    MW4 6768   4.477   0.386   3.140
 1685SOL     OW 6769   0.211   0.545   3.006
 1685SOL    HW2 6770   0.288   0.498   3.037
 1685SOL    HW3 6771   0.136   0.497   3.043
 1685SOL    MW4 6772   0.211   0.533   3.015
 1686SOL     OW 6773   0.209   0.811   3.103
 1686SOL    HW2 6774   0.196   0.805   3.198
 1686SOL    HW3 6775   0.213   0.720   3.074
 1686SOL    MW4 6776   0.208   0.798   3.112
 1687SOL     OW 6777   4.471   0.927   3.000
 1687SOL    HW2 6778   4.562   0.900   3.012
 1687SOL    HW3 6779   4.454   0.914   2.907
 1687SOL    MW4 6780   4.481   0.922   2.989
 1688SOL     OW 6781   4.452   1.167   3.126
 1688SOL    HW2 6782   4.370   1.208   3.096
 1688SOL    HW3 6783   4.459   1.088   3.073
 1688SOL    MW4 6784   4.442   1.162   3.115
 1689SOL     OW 6785   0.201   1.303   3.032
 1689SOL    HW2 6786   0.127   1.252   3.065
 1689SOL    HW3 6787   0.200   1.289   2.938
 1689SOL    MW4 6788   0.191   1.294   3.024
 1690SOL     OW 6789   0.211   1.551   3.126
 1690SOL    HW2 6790   0.138   1.602   3.091
 1690SOL    HW3 6791   0.194   1.462   3.097
 1690SOL    MW4 6792   0.199   1.546   3.118
 1691SOL     OW 6793   4.483   1.668   3.003
 1691SOL    HW2 6794   4.404   1.626   3.037
 1691SOL    HW3 6795   4.487   1.752   3.048
 1691SOL    MW4 6796   4.473   1.673   3.014
 1692SOL     OW 6797   0.007   1.925   3.106
 1692SOL    HW2 6798  -0.076   1.973   3.096
 1692SOL    HW3 6799   0.073   1.985   3.070
 1692SOL    MW4 6800   0.005   1.940   3.100
 1693SOL     OW 6801   0.244   2.066   3.006
 1693SOL    HW2 6802   0.245   2.159   3.032
 1693SOL    HW3 6803   0.248   2.068   2.911
 1693SOL    MW4 6804   0.245   2.079   2.997
 1694SOL     OW 6805   0.233   2.339   3.067
 1694SOL    HW2 6806   0.227   2.331   3.162
 1694SOL    HW3 6807   0.307   2.398   3.053
 1694SOL    MW4 6808   0.242   2.346   3.078
 1695SOL     OW 6809   0.006   2.475   2.954
 1695SOL    HW2 6810  -0.004   2.564   2.987
 1695SOL    HW3 6811   0.082   2.440   3.000
 1695SOL    MW4 6812   0.015   2.482   2.965
 1696SOL     OW 6813   4.455   2.700   3.109
 1696SOL    HW2 6814   4.459   2.684   3.204
 1696SOL    HW3 6815   4.534   2.750   3.090
 1696SOL    MW4 6816   4.466   2.704   3.119
 1697SOL     OW 6817   0.207   2.857   3.043
 1697SOL    HW2 6818   0.272   2.809   3.095
 1697SOL    HW3 6819   0.231   2.838   2.952
 1697SOL    MW4 6820   0.219   2.848   3.038
 1698SOL     OW 6821   0.261   3.108   3.102
 1698SOL    HW2 6822   0.180   3.152   3.080
 1698SOL    HW3 6823   0.247   3.016   3.077
 1698SOL    MW4 6824   0.249   3.102   3.096
 1699SOL     OW 6825   0.018   3.244   3.035
 1699SOL    HW2 6826  -0.060   3.189   3.053
 1699SOL    HW3 6827   0.025   3.244   2.940
 1699SOL    MW4 6828   0.009   3.236   3.025
 1700SOL     OW 6829   4.487   3.501   3.163
 1700SOL    HW2 6830   4.434   3.560   3.109
 1700SOL    HW3 6831   4.481   3.416   3.119
 1700SOL    MW4 6832   4.479   3.498   3.150
 1701SOL     OW 6833   0.200   3.631   3.016
 1701SOL    HW2 6834   0.186   3.722   3.040
 1701SOL    HW3 6835   0.141   3.581   3.073
 1701SOL    MW4 6836   0.190   3.636   3.026
 1702SOL     OW 6837   0.175   3.889   3.114
 1702SOL    HW2 6838   0.193   3.869   3.205
 1702SOL    HW3 6839   0.260   3.913   3.077
 1702SOL    MW4 6840   0.189   3.890   3.121
 1703SOL     OW 6841   4.447   4.026   3.041
 1703SOL    HW2 6842   4.521   3.974   3.075
 1703SOL    HW3 6843   4.459   4.026   2.947
 1703SOL    MW4 6844   4.458   4.019   3.033
 1704SOL     OW 6845   4.478   4.282   3.142
 1704SOL    HW2 6846   4.482   4.281   3.238
 1704SOL    HW3 6847   4.465   4.191   3.117
 1704SOL    MW4 6848   4.477   4.270   3.151
 1705SOL     OW 6849   0.192   4.395   3.005
 1705SOL    HW2 6850   0.122   4.359   3.060
 1705SOL    HW3 6851   0.202   4.486   3.035
 1705SOL    MW4 6852   0.184   4.402   3.016
 1706SOL     OW 6853   0.677   4.658   3.091
 1706SOL    HW2 6854   0.659   4.566   3.070
 1706SOL    HW3 6855   0.605   4.706   3.051
 1706SOL    MW4 6856   0.665   4.652   3.083
 1707SOL     OW 6857   0.435   0.117   2.997
 1707SOL    HW2 6858   0.405   0.203   3.024
 1707SOL    HW3 6859   0.363   0.058   3.021
 1707SOL    MW4 6860   0.421   0.120   3.004
 1708SOL     OW 6861   0.423   0.401   3.097
 1708SOL    HW2 6862   0.436   0.385   3.191
 1708SOL    HW3 6863   0.508   0.433   3.066
 1708SOL    MW4 6864   0.436   0.403   3.105
 1709SOL     OW 6865   0.660   0.494   2.998
 1709SOL    HW2 6866   0.744   0.457   3.026
 1709SOL    HW3 6867   0.668   0.588   3.015
 1709SOL    MW4 6868   0.672   0.501   3.004
 1710SOL     OW 6869   0.684   0.750   3.073
 1710SOL    HW2 6870   0.672   0.760   3.168
 1710SOL    HW3 6871   0.607   0.790   3.034
 1710SOL    MW4 6872   0.672   0.757   3.081
 1711SOL     OW 6873   0.463   0.879   2.971
 1711SOL    HW2 6874   0.386   0.846   3.017
 1711SOL    HW3 6875   0.436   0.883   2.879
 1711SOL    MW4 6876   0.449   0.875   2.965
 1712SOL     OW 6877   0.445   1.126   3.089
 1712SOL    HW2 6878   0.457   1.036   3.059
 1712SOL    HW3 6879   0.364   1.155   3.045
 1712SOL    MW4 6880   0.436   1.118   3.079
 1713SOL     OW 6881   0.665   1.276   3.004
 1713SOL    HW2 6882   0.742   1.229   3.035
 1713SOL    HW3 6883   0.591   1.219   3.026
 1713SOL    MW4 6884   0.666   1.262   3.011
 1714SOL     OW 6885   0.652   1.544   3.103
 1714SOL    HW2 6886   0.634   1.543   3.197
 1714SOL    HW3 6887   0.670   1.453   3.080
 1714SOL    MW4 6888   0.652   1.532   3.112
 1715SOL     OW 6889   0.409   1.666   2.992
 1715SOL    HW2 6890   0.487   1.622   3.025
 1715SOL    HW3 6891   0.335   1.618   3.030
 1715SOL    MW4 6892   0.409   1.654   3.001
 1716SOL     OW 6893   0.481   1.933   3.058
 1716SOL    HW2 6894   0.465   1.845   3.023
 1716SOL    HW3 6895   0.396   1.977   3.053
 1716SOL    MW4 6896   0.468   1.927   3.053
 1717SOL     OW 6897   0.689   2.088   2.992
 1717SOL    HW2 6898   0.758   2.040   3.039
 1717SOL    HW3 6899   0.609   2.039   3.010
 1717SOL    MW4 6900   0.688   2.076   3.000
 1718SOL     OW 6901   0.656   2.327   3.142
 1718SOL    HW2 6902   0.653   2.298   3.233
 1718SOL    HW3 6903   0.659   2.246   3.091
 1718SOL    MW4 6904   0.656   2.313   3.147
 1719SOL     OW 6905   0.455   2.492   3.017
 1719SOL    HW2 6906   0.512   2.437   3.071
 1719SOL    HW3 6907   0.474   2.466   2.927
 1719SOL    MW4 6908   0.465   2.482   3.013
 1720SOL     OW 6909   0.454   2.738   3.156
 1720SOL    HW2 6910   0.537   2.777   3.131
 1720SOL    HW3 6911   0.446   2.660   3.102
 1720SOL    MW4 6912   0.464   2.733   3.146
 1721SOL     OW 6913   0.686   2.856   3.067
 1721SOL    HW2 6914   0.771   2.819   3.091
 1721SOL    HW3 6915   0.685   2.943   3.107
 1721SOL    MW4 6916   0.697   2.863   3.076
 1722SOL     OW 6917   0.713   3.118   3.162
 1722SOL    HW2 6918   0.695   3.126   3.255
 1722SOL    HW3 6919   0.645   3.170   3.119
 1722SOL    MW4 6920   0.702   3.126   3.169
 1723SOL     OW 6921   0.503   3.243   3.043
 1723SOL    HW2 6922   0.478   3.332   3.070
 1723SOL    HW3 6923   0.436   3.187   3.082
 1723SOL    MW4 6924   0.491   3.247   3.052
 1724SOL     OW 6925   0.434   3.509   3.121
 1724SOL    HW2 6926   0.418   3.513   3.216
 1724SOL    HW3 6927   0.360   3.556   3.082
 1724SOL    MW4 6928   0.422   3.516   3.129
 1725SOL     OW 6929   0.683   3.587   2.983
 1725SOL    HW2 6930   0.755   3.553   3.036
 1725SOL    HW3 6931   0.605   3.570   3.036
 1725SOL    MW4 6932   0.682   3.580   2.997
 1726SOL     OW 6933   0.657   3.866   3.076
 1726SOL    HW2 6934   0.664   3.869   3.172
 1726SOL    HW3 6935   0.678   3.776   3.053
 1726SOL    MW4 6936   0.660   3.854   3.086
 1727SOL     OW 6937   0.414   3.980   3.037
 1727SOL    HW2 6938   0.490   3.926   3.060
 1727SOL    HW3 6939   0.422   3.994   2.943
 1727SOL    MW4 6940   0.425   3.975   3.028
 1728SOL     OW 6941   0.397   4.248   3.125
 1728SOL    HW2 6942   0.384   4.155   3.105
 1728SOL    HW3 6943   0.326   4.292   3.079
 1728SOL    MW4 6944   0.386   4.242   3.116
 1729SOL     OW 6945   0.652   4.387   3.050
 1729SOL    HW2 6946   0.576   4.342   3.088
 1729SOL    HW3 6947   0.647   4.367   2.957
 1729SOL    MW4 6948   0.641   4.378   3.043
 1730SOL     OW 6949   1.086   4.643   3.114
 1730SOL    HW2 6950   1.157   4.688   3.069
 1730SOL    HW3 6951   1.006   4.682   3.079
 1730SOL    MW4 6952   1.085   4.654   3.104
 1731SOL     OW 6953   0.884   0.142   2.985
 1731SOL    HW2 6954   0.890   0.229   3.024
 1731SOL    HW3 6955   0.803   0.106   3.020
 1731SOL    MW4 6956   0.874   0.149   2.995
 1732SOL     OW 6957   0.890   0.396   3.116
 1732SOL    HW2 6958   0.876   0.403   3.210
 1732SOL    HW3 6959   0.982   0.421   3.104
 1732SOL    MW4 6960   0.900   0.401   3.127
 1733SOL     OW 6961   1.159   0.519   3.043
 1733SOL    HW2 6962   1.241   0.474   3.063
 1733SOL    HW3 6963   1.147   0.505   2.949
 1733SOL    MW4 6964   1.168   0.511   3.033
 1734SOL     OW 6965   1.145   0.785   3.128
 1734SOL    HW2 6966   1.121   0.754   3.216
 1734SOL    HW3 6967   1.156   0.705   3.076
 1734SOL    MW4 6968   1.143   0.770   3.133
 1735SOL     OW 6969   0.943   0.904   3.007
 1735SOL    HW2 6970   1.015   0.867   3.058
 1735SOL    HW3 6971   0.865   0.856   3.037
 1735SOL    MW4 6972   0.942   0.893   3.018
 1736SOL     OW 6973   0.879   1.159   3.107
 1736SOL    HW2 6974   0.943   1.221   3.074
 1736SOL    HW3 6975   0.907   1.074   3.072
 1736SOL    MW4 6976   0.891   1.156   3.098
 1737SOL     OW 6977   1.115   1.291   3.009
 1737SOL    HW2 6978   1.180   1.240   3.057
 1737SOL    HW3 6979   1.137   1.279   2.917
 1737SOL    MW4 6980   1.126   1.283   3.003
 1738SOL     OW 6981   1.137   1.535   3.135
 1738SOL    HW2 6982   1.215   1.576   3.097
 1738SOL    HW3 6983   1.127   1.454   3.084
 1738SOL    MW4 6984   1.146   1.530   3.123
 1739SOL     OW 6985   0.904   1.674   3.031
 1739SOL    HW2 6986   0.981   1.620   3.051
 1739SOL    HW3 6987   0.830   1.623   3.065
 1739SOL    MW4 6988   0.904   1.660   3.038
 1740SOL     OW 6989   0.882   1.936   3.116
 1740SOL    HW2 6990   0.919   1.950   3.204
 1740SOL    HW3 6991   0.898   1.843   3.098
 1740SOL    MW4 6992   0.889   1.925   3.125
 1741SOL     OW 6993   1.124   2.030   2.997
 1741SOL    HW2 6994   1.042   1.996   3.034
 1741SOL    HW3 6995   1.108   2.032   2.903
 1741SOL    MW4 6996   1.111   2.025   2.990
 1742SOL     OW 6997   1.128   2.263   3.148
 1742SOL    HW2 6998   1.053   2.312   3.114
 1742SOL    HW3 6999   1.126   2.180   3.101
 1742SOL    MW4 7000   1.118   2.258   3.137
 1743SOL     OW 7001   0.906   2.436   3.062
 1743SOL    HW2 7002   0.825   2.391   3.084
 1743SOL    HW3 7003   0.909   2.435   2.966
 1743SOL    MW4 7004   0.896   2.430   3.052
 1744SOL     OW 7005   0.914   2.716   3.129
 1744SOL    HW2 7006   0.914   2.719   3.225
 1744SOL    HW3 7007   0.883   2.629   3.108
 1744SOL    MW4 7008   0.910   2.705   3.139
 1745SOL     OW 7009   1.142   2.825   2.980
 1745SOL    HW2 7010   1.154   2.911   3.020
 1745SOL    HW3 7011   1.070   2.786   3.029
 1745SOL    MW4 7012   1.134   2.832   2.992
 1746SOL     OW 7013   1.159   3.065   3.109
 1746SOL    HW2 7014   1.233   3.120   3.083
 1746SOL    HW3 7015   1.081   3.114   3.082
 1746SOL    MW4 7016   1.158   3.079   3.102
 1747SOL     OW 7017   0.933   3.198   3.033
 1747SOL    HW2 7018   0.858   3.154   3.073
 1747SOL    HW3 7019   0.910   3.206   2.940
 1747SOL    MW4 7020   0.920   3.193   3.026
 1748SOL     OW 7021   0.907   3.456   3.127
 1748SOL    HW2 7022   0.985   3.498   3.090
 1748SOL    HW3 7023   0.910   3.367   3.094
 1748SOL    MW4 7024   0.918   3.450   3.118
 1749SOL     OW 7025   1.105   3.642   3.014
 1749SOL    HW2 7026   1.193   3.611   3.035
 1749SOL    HW3 7027   1.103   3.733   3.043
 1749SOL    MW4 7028   1.116   3.649   3.020
 1750SOL     OW 7029   1.126   3.899   3.103
 1750SOL    HW2 7030   1.141   3.894   3.197
 1750SOL    HW3 7031   1.037   3.932   3.094
 1750SOL    MW4 7032   1.116   3.903   3.114
 1751SOL     OW 7033   0.866   4.010   3.002
 1751SOL    HW2 7034   0.782   3.971   3.024
 1751SOL    HW3 7035   0.869   4.008   2.906
 1751SOL    MW4 7036   0.855   4.005   2.992
 1752SOL     OW 7037   0.902   4.277   3.096
 1752SOL    HW2 7038   0.887   4.192   3.054
 1752SOL    HW3 7039   0.821   4.325   3.082
 1752SOL    MW4 7040   0.889   4.272   3.089
 1753SOL     OW 7041   1.130   4.385   2.963
 1753SOL    HW2 7042   1.053   4.342   3.000
 1753SOL    HW3 7043   1.141   4.464   3.016
 1753SOL    MW4 7044   1.122   4.390   2.975
 1754SOL     OW 7045   1.558   4.619   3.077
 1754SOL    HW2 7046   1.565   4.616   3.173
 1754SOL    HW3 7047   1.479   4.669   3.060
 1754SOL    MW4 7048   1.549   4.625   3.088
 1755SOL     OW 7049   1.307   0.101   3.004
 1755SOL    HW2 7050   1.323   0.191   3.031
 1755SOL    HW3 7051   1.329   0.099   2.911
 1755SOL    MW4 7052   1.312   0.112   2.996
 1756SOL     OW 7053   1.392   0.365   3.095
 1756SOL    HW2 7054   1.381   0.358   3.190
 1756SOL    HW3 7055   1.473   0.414   3.083
 1756SOL    MW4 7056   1.401   0.371   3.106
 1757SOL     OW 7057   1.622   0.508   3.027
 1757SOL    HW2 7058   1.584   0.595   3.037
 1757SOL    HW3 7059   1.603   0.484   2.936
 1757SOL    MW4 7060   1.615   0.516   3.016
 1758SOL     OW 7061   1.554   0.765   3.083
 1758SOL    HW2 7062   1.559   0.776   3.178
 1758SOL    HW3 7063   1.500   0.839   3.054
 1758SOL    MW4 7064   1.548   0.776   3.092
 1759SOL     OW 7065   1.367   0.945   3.008
 1759SOL    HW2 7066   1.366   1.027   3.058
 1759SOL    HW3 7067   1.303   0.889   3.051
 1759SOL    MW4 7068   1.359   0.948   3.020
 1760SOL     OW 7069   1.326   1.195   3.136
 1760SOL    HW2 7070   1.337   1.192   3.231
 1760SOL    HW3 7071   1.398   1.251   3.105
 1760SOL    MW4 7072   1.337   1.202   3.144
 1761SOL     OW 7073   1.592   1.288   2.997
 1761SOL    HW2 7074   1.667   1.234   3.022
 1761SOL    HW3 7075   1.605   1.370   3.044
 1761SOL    MW4 7076   1.604   1.291   3.007
 1762SOL     OW 7077   1.614   1.533   3.134
 1762SOL    HW2 7078   1.676   1.588   3.087
 1762SOL    HW3 7079   1.529   1.553   3.094
 1762SOL    MW4 7080   1.611   1.543   3.123
 1763SOL     OW 7081   1.372   1.623   3.033
 1763SOL    HW2 7082   1.370   1.716   3.057
 1763SOL    HW3 7083   1.383   1.623   2.938
 1763SOL    MW4 7084   1.373   1.635   3.023
 1764SOL     OW 7085   1.350   1.895   3.124
 1764SOL    HW2 7086   1.355   1.908   3.219
 1764SOL    HW3 7087   1.273   1.946   3.097
 1764SOL    MW4 7088   1.340   1.904   3.133
 1765SOL     OW 7089   1.522   2.075   3.030
 1765SOL    HW2 7090   1.472   1.997   3.055
 1765SOL    HW3 7091   1.527   2.070   2.934
 1765SOL    MW4 7092   1.516   2.064   3.020
 1766SOL     OW 7093   1.554   2.312   3.153
 1766SOL    HW2 7094   1.490   2.361   3.101
 1766SOL    HW3 7095   1.548   2.222   3.121
 1766SOL    MW4 7096   1.545   2.307   3.142
 1767SOL     OW 7097   1.336   2.421   3.034
 1767SOL    HW2 7098   1.273   2.361   3.073
 1767SOL    HW3 7099   1.329   2.406   2.939
 1767SOL    MW4 7100   1.327   2.411   3.026
 1768SOL     OW 7101   1.323   2.667   3.142
 1768SOL    HW2 7102   1.320   2.580   3.103
 1768SOL    HW3 7103   1.264   2.719   3.088
 1768SOL    MW4 7104   1.315   2.663   3.129
 1769SOL     OW 7105   1.551   2.810   3.031
 1769SOL    HW2 7106   1.631   2.764   3.055
 1769SOL    HW3 7107   1.482   2.763   3.078
 1769SOL    MW4 7108   1.552   2.798   3.041
 1770SOL     OW 7109   1.591   3.087   3.101
 1770SOL    HW2 7110   1.581   3.087   3.196
 1770SOL    HW3 7111   1.574   2.996   3.076
 1770SOL    MW4 7112   1.588   3.075   3.110
 1771SOL     OW 7113   1.383   3.242   3.028
 1771SOL    HW2 7114   1.456   3.191   3.061
 1771SOL    HW3 7115   1.388   3.234   2.933
 1771SOL    MW4 7116   1.393   3.235   3.020
 1772SOL     OW 7117   1.335   3.502   3.098
 1772SOL    HW2 7118   1.338   3.484   3.192
 1772SOL    HW3 7119   1.353   3.418   3.056
 1772SOL    MW4 7120   1.338   3.489   3.105
 1773SOL     OW 7121   1.586   3.615   3.047
 1773SOL    HW2 7122   1.508   3.566   3.072
 1773SOL    HW3 7123   1.578   3.625   2.952
 1773SOL    MW4 7124   1.574   3.610   3.037
 1774SOL     OW 7125   1.581   3.891   3.100
 1774SOL    HW2 7126   1.654   3.938   3.060
 1774SOL    HW3 7127   1.594   3.800   3.074
 1774SOL    MW4 7128   1.592   3.885   3.092
 1775SOL     OW 7129   1.351   3.968   2.961
 1775SOL    HW2 7130   1.434   3.954   3.007
 1775SOL    HW3 7131   1.287   3.917   3.011
 1775SOL    MW4 7132   1.354   3.960   2.974
 1776SOL     OW 7133   1.334   4.236   3.074
 1776SOL    HW2 7134   1.317   4.143   3.058
 1776SOL    HW3 7135   1.259   4.281   3.036
 1776SOL    MW4 7136   1.322   4.229   3.067
 1777SOL     OW 7137   1.568   4.351   2.988
 1777SOL    HW2 7138   1.487   4.310   3.017
 1777SOL    HW3 7139   1.569   4.436   3.031
 1777SOL    MW4 7140   1.558   4.357   2.997
 1778SOL     OW 7141   2.044   4.639   3.064
 1778SOL    HW2 7142   2.038   4.622   3.158
 1778SOL    HW3 7143   1.964   4.686   3.042
 1778SOL    MW4 7144   2.033   4.643   3.073
 1779SOL     OW 7145   1.777   0.104   2.984
 1779SOL    HW2 7146   1.695   0.066   3.016
 1779SOL    HW3 7147   1.758   0.130   2.893
 1779SOL    MW4 7148   1.763   0.103   2.976
 1780SOL     OW 7149   1.821   0.356   3.103
 1780SOL    HW2 7150   1.797   0.269   3.072
 1780SOL    HW3 7151   1.757   0.415   3.064
 1780SOL    MW4 7152   1.809   0.353   3.094
 1781SOL     OW 7153   2.047   0.463   2.980
 1781SOL    HW2 7154   1.965   0.425   3.012
 1781SOL    HW3 7155   2.043   0.452   2.885
 1781SOL    MW4 7156   2.036   0.456   2.971
 1782SOL     OW 7157   2.034   0.732   3.078
 1782SOL    HW2 7158   1.949   0.765   3.050
 1782SOL    HW3 7159   2.033   0.640   3.053
 1782SOL    MW4 7160   2.023   0.724   3.071
 1783SOL     OW 7161   1.803   0.883   3.009
 1783SOL    HW2 7162   1.721   0.849   3.047
 1783SOL    HW3 7163   1.794   0.868   2.915
 1783SOL    MW4 7164   1.791   0.876   3.002
 1784SOL     OW 7165   1.809   1.147   3.103
 1784SOL    HW2 7166   1.820   1.143   3.198
 1784SOL    HW3 7167   1.819   1.056   3.074
 1784SOL    MW4 7168   1.811   1.134   3.112
 1785SOL     OW 7169   2.006   1.310   2.987
 1785SOL    HW2 7170   2.080   1.257   3.016
 1785SOL    HW3 7171   1.929   1.260   3.015
 1785SOL    MW4 7172   2.005   1.296   2.994
 1786SOL     OW 7173   2.009   1.559   3.089
 1786SOL    HW2 7174   2.003   1.551   3.184
 1786SOL    HW3 7175   2.014   1.468   3.057
 1786SOL    MW4 7176   2.009   1.546   3.097
 1787SOL     OW 7177   1.778   1.678   2.995
 1787SOL    HW2 7178   1.758   1.762   3.037
 1787SOL    HW3 7179   1.858   1.648   3.039
 1787SOL    MW4 7180   1.786   1.685   3.007
 1788SOL     OW 7181   1.765   1.927   3.105
 1788SOL    HW2 7182   1.838   1.977   3.068
 1788SOL    HW3 7183   1.687   1.974   3.077
 1788SOL    MW4 7184   1.764   1.940   3.096
 1789SOL     OW 7185   1.974   2.069   2.997
 1789SOL    HW2 7186   2.046   2.026   3.043
 1789SOL    HW3 7187   1.969   2.156   3.038
 1789SOL    MW4 7188   1.983   2.075   3.009
 1790SOL     OW 7189   2.012   2.314   3.107
 1790SOL    HW2 7190   2.093   2.344   3.066
 1790SOL    HW3 7191   1.943   2.365   3.063
 1790SOL    MW4 7192   2.014   2.325   3.096
 1791SOL     OW 7193   1.759   2.413   3.010
 1791SOL    HW2 7194   1.768   2.497   3.057
 1791SOL    HW3 7195   1.692   2.366   3.059
 1791SOL    MW4 7196   1.751   2.418   3.023
 1792SOL     OW 7197   1.795   2.655   3.130
 1792SOL    HW2 7198   1.787   2.680   3.223
 1792SOL    HW3 7199   1.847   2.726   3.091
 1792SOL    MW4 7200   1.801   2.668   3.137
 1793SOL     OW 7201   1.979   2.831   3.008
 1793SOL    HW2 7202   2.002   2.918   3.042
 1793SOL    HW3 7203   1.984   2.840   2.913
 1793SOL    MW4 7204   1.983   2.843   3.000
 1794SOL     OW 7205   2.053   3.082   3.075
 1794SOL    HW2 7206   2.067   3.099   3.168
 1794SOL    HW3 7207   1.975   3.132   3.052
 1794SOL    MW4 7208   2.045   3.091   3.084
 1795SOL     OW 7209   1.812   3.239   2.981
 1795SOL    HW2 7210   1.739   3.194   3.022
 1795SOL    HW3 7211   1.793   3.236   2.887
 1795SOL    MW4 7212   1.800   3.233   2.974
 1796SOL     OW 7213   1.831   3.491   3.104
 1796SOL    HW2 7214   1.820   3.406   3.062
 1796SOL    HW3 7215   1.746   3.534   3.094
 1796SOL    MW4 7216   1.818   3.486   3.097
 1797SOL     OW 7217   2.001   3.609   2.932
 1797SOL    HW2 7218   2.021   3.689   2.981
 1797SOL    HW3 7219   1.943   3.560   2.990
 1797SOL    MW4 7220   1.996   3.613   2.946
 1798SOL     OW 7221   2.024   3.863   3.049
 1798SOL    HW2 7222   2.018   3.843   3.143
 1798SOL    HW3 7223   1.954   3.926   3.034
 1798SOL    MW4 7224   2.014   3.868   3.059
 1799SOL     OW 7225   1.796   4.011   2.976
 1799SOL    HW2 7226   1.800   4.103   2.999
 1799SOL    HW3 7227   1.803   4.009   2.880
 1799SOL    MW4 7228   1.797   4.023   2.966
 1800SOL     OW 7229   1.829   4.261   3.085
 1800SOL    HW2 7230   1.904   4.298   3.040
 1800SOL    HW3 7231   1.756   4.319   3.061
 1800SOL    MW4 7232   1.829   4.274   3.076
 1801SOL     OW 7233   2.054   4.383   2.994
 1801SOL    HW2 7234   2.066   4.475   3.018
 1801SOL    HW3 7235   2.041   4.384   2.899
 1801SOL    MW4 7236   2.054   4.395   2.985
 1802SOL     OW 7237   2.474   0.001   3.106
 1802SOL    HW2 7238   2.484  -0.092   3.086
 1802SOL    HW3 7239   2.404   0.030   3.047
 1802SOL    MW4 7240   2.466  -0.008   3.095
 1803SOL     OW 7241   2.262   0.128   2.969
 1803SOL    HW2 7242   2.264   0.211   3.017
 1803SOL    HW3 7243   2.202   0.073   3.018
 1803SOL    MW4 7244   2.255   0.132   2.981
 1804SOL     OW 7245   2.273   0.377   3.087
 1804SOL    HW2 7246   2.269   0.377   3.183
 1804SOL    HW3 7247   2.187   0.409   3.059
 1804SOL    MW4 7248   2.261   0.381   3.096
 1805SOL     OW 7249   2.493   0.528   2.993
 1805SOL    HW2 7250   2.420   0.473   3.019
 1805SOL    HW3 7251   2.501   0.516   2.898
 1805SOL    MW4 7252   2.484   0.519   2.984
 1806SOL     OW 7253   2.467   0.768   3.126
 1806SOL    HW2 7254   2.547   0.813   3.099
 1806SOL    HW3 7255   2.473   0.682   3.084
 1806SOL    MW4 7256   2.478   0.763   3.117
 1807SOL     OW 7257   2.230   0.899   2.974
 1807SOL    HW2 7258   2.312   0.868   3.012
 1807SOL    HW3 7259   2.163   0.838   3.006
 1807SOL    MW4 7260   2.232   0.887   2.983
 1808SOL     OW 7261   2.227   1.170   3.078
 1808SOL    HW2 7262   2.220   1.155   3.172
 1808SOL    HW3 7263   2.212   1.084   3.039
 1808SOL    MW4 7264   2.224   1.157   3.085
 1809SOL     OW 7265   2.479   1.260   2.996
 1809SOL    HW2 7266   2.402   1.226   3.041
 1809SOL    HW3 7267   2.456   1.256   2.903
 1809SOL    MW4 7268   2.466   1.255   2.990
 1810SOL     OW 7269   2.444   1.529   3.092
 1810SOL    HW2 7270   2.377   1.575   3.042
 1810SOL    HW3 7271   2.452   1.444   3.050
 1810SOL    MW4 7272   2.436   1.524   3.080
 1811SOL     OW 7273   2.230   1.702   2.986
 1811SOL    HW2 7274   2.156   1.654   3.024
 1811SOL    HW3 7275   2.221   1.690   2.892
 1811SOL    MW4 7276   2.219   1.694   2.979
 1812SOL     OW 7277   2.189   1.937   3.133
 1812SOL    HW2 7278   2.252   2.004   3.107
 1812SOL    HW3 7279   2.224   1.856   3.097
 1812SOL    MW4 7280   2.202   1.936   3.125
 1813SOL     OW 7281   2.406   2.070   3.030
 1813SOL    HW2 7282   2.492   2.029   3.039
 1813SOL    HW3 7283   2.389   2.070   2.936
 1813SOL    MW4 7284   2.415   2.064   3.019
 1814SOL     OW 7285   2.483   2.344   3.102
 1814SOL    HW2 7286   2.466   2.358   3.195
 1814SOL    HW3 7287   2.455   2.254   3.086
 1814SOL    MW4 7288   2.477   2.334   3.112
 1815SOL     OW 7289   2.236   2.439   3.013
 1815SOL    HW2 7290   2.229   2.531   3.038
 1815SOL    HW3 7291   2.327   2.415   3.031
 1815SOL    MW4 7292   2.247   2.448   3.019
 1816SOL     OW 7293   2.205   2.698   3.097
 1816SOL    HW2 7294   2.271   2.746   3.048
 1816SOL    HW3 7295   2.123   2.744   3.076
 1816SOL    MW4 7296   2.203   2.711   3.088
 1817SOL     OW 7297   2.420   2.818   2.986
 1817SOL    HW2 7298   2.451   2.908   2.998
 1817SOL    HW3 7299   2.413   2.809   2.891
 1817SOL    MW4 7300   2.423   2.829   2.975
 1818SOL     OW 7301   2.524   3.078   3.049
 1818SOL    HW2 7302   2.603   3.128   3.030
 1818SOL    HW3 7303   2.454   3.127   3.007
 1818SOL    MW4 7304   2.525   3.091   3.041
 1819SOL     OW 7305   2.281   3.225   2.972
 1819SOL    HW2 7306   2.272   3.316   3.001
 1819SOL    HW3 7307   2.202   3.182   3.003
 1819SOL    MW4 7308   2.270   3.232   2.980
 1820SOL     OW 7309   2.250   3.490   3.039
 1820SOL    HW2 7310   2.326   3.542   3.014
 1820SOL    HW3 7311   2.178   3.527   2.988
 1820SOL    MW4 7312   2.250   3.502   3.029
 1821SOL     OW 7313   2.484   3.618   2.953
 1821SOL    HW2 7314   2.555   3.573   2.998
 1821SOL    HW3 7315   2.486   3.707   2.989
 1821SOL    MW4 7316   2.494   3.624   2.964
 1822SOL     OW 7317   2.483   3.876   3.038
 1822SOL    HW2 7318   2.476   3.876   3.133
 1822SOL    HW3 7319   2.566   3.920   3.020
 1822SOL    MW4 7320   2.493   3.882   3.048
 1823SOL     OW 7321   2.254   4.002   2.984
 1823SOL    HW2 7322   2.332   3.952   3.006
 1823SOL    HW3 7323   2.182   3.957   3.029
 1823SOL    MW4 7324   2.255   3.990   2.993
 1824SOL     OW 7325   2.277   4.264   3.103
 1824SOL    HW2 7326   2.264   4.180   3.059
 1824SOL    HW3 7327   2.205   4.319   3.072
 1824SOL    MW4 7328   2.265   4.261   3.093
 1825SOL     OW 7329   2.472   4.396   3.002
 1825SOL    HW2 7330   2.393   4.354   3.036
 1825SOL    HW3 7331   2.451   4.416   2.911
 1825SOL    MW4 7332   2.459   4.393   2.994
 1826SOL     OW 7333   2.904   4.667   3.105
 1826SOL    HW2 7334   2.987   4.708   3.081
 1826SOL    HW3 7335   2.913   4.576   3.075
 1826SOL    MW4 7336   2.916   4.660   3.098
 1827SOL     OW 7337   2.691   0.119   2.971
 1827SOL    HW2 7338   2.769   0.081   3.010
 1827SOL    HW3 7339   2.618   0.083   3.021
 1827SOL    MW4 7340   2.692   0.109   2.983
 1828SOL     OW 7341   2.722   0.341   3.106
 1828SOL    HW2 7342   2.704   0.255   3.068
 1828SOL    HW3 7343   2.654   0.398   3.069
 1828SOL    MW4 7344   2.710   0.337   3.096
 1829SOL     OW 7345   2.943   0.471   2.994
 1829SOL    HW2 7346   2.877   0.414   3.033
 1829SOL    HW3 7347   2.921   0.474   2.901
 1829SOL    MW4 7348   2.932   0.464   2.987
 1830SOL     OW 7349   2.896   0.729   3.036
 1830SOL    HW2 7350   2.911   0.734   3.131
 1830SOL    HW3 7351   2.906   0.636   3.016
 1830SOL    MW4 7352   2.899   0.717   3.046
 1831SOL     OW 7353   2.681   0.912   2.976
 1831SOL    HW2 7354   2.688   1.004   3.003
 1831SOL    HW3 7355   2.757   0.870   3.015
 1831SOL    MW4 7356   2.692   0.919   2.985
 1832SOL     OW 7357   2.710   1.164   3.080
 1832SOL    HW2 7358   2.771   1.217   3.028
 1832SOL    HW3 7359   2.625   1.203   3.063
 1832SOL    MW4 7360   2.707   1.176   3.071
 1833SOL     OW 7361   2.926   1.296   2.967
 1833SOL    HW2 7362   2.982   1.244   3.025
 1833SOL    HW3 7363   2.922   1.382   3.009
 1833SOL    MW4 7364   2.933   1.300   2.980
 1834SOL     OW 7365   2.903   1.545   3.081
 1834SOL    HW2 7366   2.885   1.536   3.175
 1834SOL    HW3 7367   2.983   1.598   3.077
 1834SOL    MW4 7368   2.911   1.551   3.093
 1835SOL     OW 7369   2.649   1.672   2.954
 1835SOL    HW2 7370   2.729   1.633   2.990
 1835SOL    HW3 7371   2.578   1.619   2.989
 1835SOL    MW4 7372   2.650   1.660   2.964
 1836SOL     OW 7373   2.645   1.933   3.052
 1836SOL    HW2 7374   2.732   1.970   3.036
 1836SOL    HW3 7375   2.653   1.841   3.027
 1836SOL    MW4 7376   2.658   1.925   3.047
 1837SOL     OW 7377   2.881   2.059   3.024
 1837SOL    HW2 7378   2.893   2.146   3.061
 1837SOL    HW3 7379   2.883   2.073   2.929
 1837SOL    MW4 7380   2.883   2.072   3.016
 1838SOL     OW 7381   2.930   2.331   3.100
 1838SOL    HW2 7382   3.012   2.371   3.070
 1838SOL    HW3 7383   2.862   2.374   3.049
 1838SOL    MW4 7384   2.932   2.342   3.089
 1839SOL     OW 7385   2.716   2.468   2.982
 1839SOL    HW2 7386   2.700   2.560   3.003
 1839SOL    HW3 7387   2.638   2.423   3.015
 1839SOL    MW4 7388   2.703   2.475   2.989
 1840SOL     OW 7389   2.674   2.730   3.070
 1840SOL    HW2 7390   2.660   2.720   3.164
 1840SOL    HW3 7391   2.592   2.765   3.037
 1840SOL    MW4 7392   2.661   2.733   3.078
 1841SOL     OW 7393   2.913   2.805   2.951
 1841SOL    HW2 7394   2.986   2.750   2.979
 1841SOL    HW3 7395   2.840   2.776   3.005
 1841SOL    MW4 7396   2.913   2.794   2.962
 1842SOL     OW 7397   2.918   3.041   3.089
 1842SOL    HW2 7398   2.865   3.109   3.048
 1842SOL    HW3 7399   2.901   2.962   3.038
 1842SOL    MW4 7400   2.909   3.040   3.077
 1843SOL     OW 7401   2.755   3.233   2.962
 1843SOL    HW2 7402   2.745   3.327   2.977
 1843SOL    HW3 7403   2.732   3.221   2.870
 1843SOL    MW4 7404   2.751   3.244   2.952
 1844SOL     OW 7405   2.708   3.482   3.057
 1844SOL    HW2 7406   2.693   3.483   3.151
 1844SOL    HW3 7407   2.792   3.525   3.045
 1844SOL    MW4 7408   2.717   3.488   3.068
 1845SOL     OW 7409   2.951   3.617   2.992
 1845SOL    HW2 7410   3.034   3.574   3.013
 1845SOL    HW3 7411   2.969   3.710   3.000
 1845SOL    MW4 7412   2.964   3.623   2.995
 1846SOL     OW 7413   2.961   3.871   3.098
 1846SOL    HW2 7414   2.947   3.883   3.192
 1846SOL    HW3 7415   2.889   3.918   3.057
 1846SOL    MW4 7416   2.950   3.878   3.105
 1847SOL     OW 7417   2.739   3.986   2.998
 1847SOL    HW2 7418   2.732   4.079   3.019
 1847SOL    HW3 7419   2.735   3.983   2.902
 1847SOL    MW4 7420   2.738   3.998   2.988
 1848SOL     OW 7421   2.703   4.257   3.056
 1848SOL    HW2 7422   2.700   4.267   3.151
 1848SOL    HW3 7423   2.621   4.295   3.024
 1848SOL    MW4 7424   2.692   4.263   3.064
 1849SOL     OW 7425   2.935   4.396   2.974
 1849SOL    HW2 7426   3.009   4.350   3.013
 1849SOL    HW3 7427   2.858   4.351   3.008
 1849SOL    MW4 7428   2.935   4.384   2.983
 1850SOL     OW 7429   3.366   4.645   3.106
 1850SOL    HW2 7430   3.448   4.690   3.086
 1850SOL    HW3 7431   3.366   4.567   3.049
 1850SOL    MW4 7432   3.376   4.640   3.096
 1851SOL     OW 7433   3.146   0.126   3.038
 1851SOL    HW2 7434   3.167   0.216   3.064
 1851SOL    HW3 7435   3.223   0.076   3.063
 1851SOL    MW4 7436   3.159   0.131   3.045
 1852SOL     OW 7437   3.194   0.412   3.080
 1852SOL    HW2 7438   3.259   0.469   3.040
 1852SOL    HW3 7439   3.112   0.433   3.034
 1852SOL    MW4 7440   3.191   0.423   3.069
 1853SOL     OW 7441   3.402   0.585   2.989
 1853SOL    HW2 7442   3.478   0.534   3.018
 1853SOL    HW3 7443   3.389   0.559   2.898
 1853SOL    MW4 7444   3.410   0.575   2.980
 1854SOL     OW 7445   3.365   0.849   3.082
 1854SOL    HW2 7446   3.346   0.836   3.175
 1854SOL    HW3 7447   3.388   0.762   3.050
 1854SOL    MW4 7448   3.366   0.836   3.090
 1855SOL     OW 7449   3.122   0.880   2.966
 1855SOL    HW2 7450   3.206   0.859   3.005
 1855SOL    HW3 7451   3.062   0.812   2.997
 1855SOL    MW4 7452   3.125   0.869   2.975
 1856SOL     OW 7453   3.117   1.126   3.100
 1856SOL    HW2 7454   3.186   1.184   3.069
 1856SOL    HW3 7455   3.121   1.050   3.042
 1856SOL    MW4 7456   3.126   1.124   3.088
 1857SOL     OW 7457   3.325   1.292   3.027
 1857SOL    HW2 7458   3.413   1.265   3.052
 1857SOL    HW3 7459   3.317   1.382   3.059
 1857SOL    MW4 7460   3.336   1.300   3.034
 1858SOL     OW 7461   3.330   1.554   3.117
 1858SOL    HW2 7462   3.342   1.552   3.212
 1858SOL    HW3 7463   3.417   1.575   3.083
 1858SOL    MW4 7464   3.343   1.556   3.125
 1859SOL     OW 7465   3.128   1.694   3.002
 1859SOL    HW2 7466   3.201   1.641   3.033
 1859SOL    HW3 7467   3.140   1.699   2.907
 1859SOL    MW4 7468   3.139   1.688   2.993
 1860SOL     OW 7469   3.133   1.938   3.106
 1860SOL    HW2 7470   3.133   1.847   3.077
 1860SOL    HW3 7471   3.045   1.969   3.086
 1860SOL    MW4 7472   3.121   1.930   3.099
 1861SOL     OW 7473   3.375   2.021   2.969
 1861SOL    HW2 7474   3.442   1.974   3.019
 1861SOL    HW3 7475   3.293   1.998   3.012
 1861SOL    MW4 7476   3.373   2.012   2.981
 1862SOL     OW 7477   3.415   2.270   3.073
 1862SOL    HW2 7478   3.389   2.247   3.163
 1862SOL    HW3 7479   3.409   2.187   3.025
 1862SOL    MW4 7480   3.411   2.256   3.079
 1863SOL     OW 7481   3.176   2.407   3.018
 1863SOL    HW2 7482   3.255   2.368   3.056
 1863SOL    HW3 7483   3.193   2.405   2.923
 1863SOL    MW4 7484   3.189   2.401   3.010
 1864SOL     OW 7485   3.140   2.692   3.058
 1864SOL    HW2 7486   3.124   2.711   3.151
 1864SOL    HW3 7487   3.149   2.597   3.054
 1864SOL    MW4 7488   3.139   2.682   3.070
 1865SOL     OW 7489   3.370   2.828   3.000
 1865SOL    HW2 7490   3.363   2.914   3.040
 1865SOL    HW3 7491   3.284   2.788   3.014
 1865SOL    MW4 7492   3.358   2.834   3.007
 1866SOL     OW 7493   3.404   3.085   3.110
 1866SOL    HW2 7494   3.398   3.072   3.204
 1866SOL    HW3 7495   3.324   3.132   3.087
 1866SOL    MW4 7496   3.393   3.090   3.119
 1867SOL     OW 7497   3.139   3.207   3.024
 1867SOL    HW2 7498   3.078   3.141   3.058
 1867SOL    HW3 7499   3.128   3.203   2.929
 1867SOL    MW4 7500   3.129   3.198   3.016
 1868SOL     OW 7501   3.159   3.473   3.116
 1868SOL    HW2 7502   3.243   3.506   3.086
 1868SOL    HW3 7503   3.155   3.383   3.082
 1868SOL    MW4 7504   3.169   3.465   3.108
 1869SOL     OW 7505   3.386   3.576   3.038
 1869SOL    HW2 7506   3.464   3.529   3.069
 1869SOL    HW3 7507   3.389   3.660   3.082
 1869SOL    MW4 7508   3.397   3.581   3.048
 1870SOL     OW 7509   3.411   3.849   3.085
 1870SOL    HW2 7510   3.396   3.851   3.180
 1870SOL    HW3 7511   3.345   3.909   3.050
 1870SOL    MW4 7512   3.401   3.857   3.093
 1871SOL     OW 7513   3.203   4.009   3.010
 1871SOL    HW2 7514   3.123   3.967   3.041
 1871SOL    HW3 7515   3.189   4.020   2.916
 1871SOL    MW4 7516   3.191   4.005   3.001
 1872SOL     OW 7517   3.131   4.255   3.123
 1872SOL    HW2 7518   3.131   4.262   3.218
 1872SOL    HW3 7519   3.135   4.161   3.106
 1872SOL    MW4 7520   3.131   4.243   3.133
 1873SOL     OW 7521   3.351   4.374   2.984
 1873SOL    HW2 7522   3.434   4.343   3.022
 1873SOL    HW3 7523   3.284   4.337   3.041
 1873SOL    MW4 7524   3.353   4.365   2.997
 1874SOL     OW 7525   3.813   0.002   3.188
 1874SOL    HW2 7526   3.801  -0.089   3.159
 1874SOL    HW3 7527   3.740   0.050   3.148
 1874SOL    MW4 7528   3.802  -0.004   3.179
 1875SOL     OW 7529   3.599   0.127   3.069
 1875SOL    HW2 7530   3.585   0.220   3.084
 1875SOL    HW3 7531   3.597   0.117   2.974
 1875SOL    MW4 7532   3.597   0.138   3.059
 1876SOL     OW 7533   3.603   0.409   3.066
 1876SOL    HW2 7534   3.605   0.395   3.161
 1876SOL    HW3 7535   3.681   0.460   3.047
 1876SOL    MW4 7536   3.613   0.414   3.076
 1877SOL     OW 7537   3.842   0.526   2.984
 1877SOL    HW2 7538   3.890   0.471   3.045
 1877SOL    HW3 7539   3.839   0.612   3.027
 1877SOL    MW4 7540   3.848   0.530   2.998
 1878SOL     OW 7541   3.830   0.761   3.147
 1878SOL    HW2 7542   3.828   0.770   3.242
 1878SOL    HW3 7543   3.910   0.806   3.120
 1878SOL    MW4 7544   3.840   0.768   3.156
 1879SOL     OW 7545   3.630   0.905   3.030
 1879SOL    HW2 7546   3.695   0.843   3.064
 1879SOL    HW3 7547   3.546   0.868   3.055
 1879SOL    MW4 7548   3.628   0.892   3.037
 1880SOL     OW 7549   3.587   1.167   3.073
 1880SOL    HW2 7550   3.669   1.212   3.054
 1880SOL    HW3 7551   3.606   1.075   3.057
 1880SOL    MW4 7552   3.600   1.161   3.068
 1881SOL     OW 7553   3.830   1.290   3.009
 1881SOL    HW2 7554   3.823   1.375   3.053
 1881SOL    HW3 7555   3.826   1.312   2.916
 1881SOL    MW4 7556   3.828   1.304   3.002
 1882SOL     OW 7557   3.816   1.533   3.117
 1882SOL    HW2 7558   3.825   1.530   3.213
 1882SOL    HW3 7559   3.735   1.581   3.102
 1882SOL    MW4 7560   3.807   1.539   3.128
 1883SOL     OW 7561   3.582   1.642   3.034
 1883SOL    HW2 7562   3.575   1.736   3.054
 1883SOL    HW3 7563   3.570   1.636   2.940
 1883SOL    MW4 7564   3.580   1.654   3.024
 1884SOL     OW 7565   3.568   1.902   3.134
 1884SOL    HW2 7566   3.570   1.906   3.229
 1884SOL    HW3 7567   3.645   1.953   3.106
 1884SOL    MW4 7568   3.579   1.909   3.143
 1885SOL     OW 7569   3.811   2.020   3.022
 1885SOL    HW2 7570   3.803   2.111   3.052
 1885SOL    HW3 7571   3.820   2.026   2.927
 1885SOL    MW4 7572   3.811   2.033   3.014
 1886SOL     OW 7573   3.857   2.282   3.122
 1886SOL    HW2 7574   3.861   2.297   3.216
 1886SOL    HW3 7575   3.780   2.331   3.093
 1886SOL    MW4 7576   3.847   2.290   3.130
 1887SOL     OW 7577   3.633   2.423   3.026
 1887SOL    HW2 7578   3.620   2.516   3.042
 1887SOL    HW3 7579   3.554   2.381   3.061
 1887SOL    MW4 7580   3.621   2.430   3.033
 1888SOL     OW 7581   3.606   2.692   3.086
 1888SOL    HW2 7582   3.683   2.748   3.071
 1888SOL    HW3 7583   3.532   2.746   3.060
 1888SOL    MW4 7584   3.607   2.707   3.081
 1889SOL     OW 7585   3.823   2.853   3.040
 1889SOL    HW2 7586   3.836   2.946   3.061
 1889SOL    HW3 7587   3.817   2.851   2.944
 1889SOL    MW4 7588   3.824   2.865   3.030
 1890SOL     OW 7589   3.846   3.115   3.118
 1890SOL    HW2 7590   3.919   3.158   3.075
 1890SOL    HW3 7591   3.770   3.134   3.062
 1890SOL    MW4 7592   3.845   3.123   3.105
 1891SOL     OW 7593   3.623   3.184   2.957
 1891SOL    HW2 7594   3.541   3.156   2.998
 1891SOL    HW3 7595   3.597   3.211   2.869
 1891SOL    MW4 7596   3.609   3.184   2.951
 1892SOL     OW 7597   3.599   3.424   3.113
 1892SOL    HW2 7598   3.666   3.478   3.071
 1892SOL    HW3 7599   3.610   3.338   3.074
 1892SOL    MW4 7600   3.609   3.420   3.103
 1893SOL     OW 7601   3.799   3.573   3.000
 1893SOL    HW2 7602   3.835   3.654   3.038
 1893SOL    HW3 7603   3.798   3.589   2.906
 1893SOL    MW4 7604   3.804   3.586   2.993
 1894SOL     OW 7605   3.869   3.820   3.091
 1894SOL    HW2 7606   3.881   3.819   3.186
 1894SOL    HW3 7607   3.786   3.866   3.077
 1894SOL    MW4 7608   3.860   3.826   3.101
 1895SOL     OW 7609   3.652   3.986   3.027
 1895SOL    HW2 7610   3.582   3.921   3.031
 1895SOL    HW3 7611   3.658   4.009   2.934
 1895SOL    MW4 7612   3.644   3.980   3.015
 1896SOL     OW 7613   3.596   4.249   3.084
 1896SOL    HW2 7614   3.673   4.305   3.080
 1896SOL    HW3 7615   3.630   4.160   3.082
 1896SOL    MW4 7616   3.610   4.245   3.084
 1897SOL     OW 7617   3.809   4.420   3.052
 1897SOL    HW2 7618   3.883   4.362   3.069
 1897SOL    HW3 7619   3.809   4.433   2.958
 1897SOL    MW4 7620   3.819   4.414   3.042
 1898SOL     OW 7621   4.246   0.010   3.133
 1898SOL    HW2 7622   4.255   0.001   3.228
 1898SOL    HW3 7623   4.257  -0.079   3.099
 1898SOL    MW4 7624   4.249  -0.003   3.141
 1899SOL     OW 7625   4.013   0.119   3.047
 1899SOL    HW2 7626   4.101   0.087   3.067
 1899SOL    HW3 7627   3.955   0.062   3.097
 1899SOL    MW4 7628   4.017   0.108   3.056
 1900SOL     OW 7629   4.017   0.382   3.143
 1900SOL    HW2 7630   4.100   0.421   3.115
 1900SOL    HW3 7631   4.020   0.292   3.111
 1900SOL    MW4 7632   4.028   0.376   3.135
 1901SOL     OW 7633   4.251   0.483   3.055
 1901SOL    HW2 7634   4.266   0.574   3.082
 1901SOL    HW3 7635   4.254   0.486   2.960
 1901SOL    MW4 7636   4.253   0.496   3.046
 1902SOL     OW 7637   4.272   0.759   3.137
 1902SOL    HW2 7638   4.193   0.800   3.101
 1902SOL    HW3 7639   4.344   0.811   3.101
 1902SOL    MW4 7640   4.271   0.771   3.127
 1903SOL     OW 7641   4.047   0.891   3.023
 1903SOL    HW2 7642   4.028   0.982   3.043
 1903SOL    HW3 7643   4.059   0.889   2.928
 1903SOL    MW4 7644   4.046   0.903   3.013
 1904SOL     OW 7645   4.033   1.153   3.127
 1904SOL    HW2 7646   4.036   1.167   3.222
 1904SOL    HW3 7647   3.954   1.199   3.099
 1904SOL    MW4 7648   4.023   1.161   3.136
 1905SOL     OW 7649   4.241   1.320   3.043
 1905SOL    HW2 7650   4.175   1.253   3.061
 1905SOL    HW3 7651   4.247   1.323   2.947
 1905SOL    MW4 7652   4.233   1.311   3.033
 1906SOL     OW 7653   4.266   1.572   3.126
 1906SOL    HW2 7654   4.183   1.613   3.103
 1906SOL    HW3 7655   4.255   1.480   3.103
 1906SOL    MW4 7656   4.253   1.565   3.120
 1907SOL     OW 7657   4.028   1.656   3.017
 1907SOL    HW2 7658   4.012   1.738   3.064
 1907SOL    HW3 7659   3.954   1.600   3.041
 1907SOL    MW4 7660   4.016   1.660   3.026
 1908SOL     OW 7661   4.051   1.913   3.132
 1908SOL    HW2 7662   4.125   1.960   3.094
 1908SOL    HW3 7663   3.974   1.965   3.110
 1908SOL    MW4 7664   4.051   1.926   3.124
 1909SOL     OW 7665   4.265   2.058   3.039
 1909SOL    HW2 7666   4.266   2.153   3.050
 1909SOL    HW3 7667   4.263   2.044   2.945
 1909SOL    MW4 7668   4.265   2.068   3.028
 1910SOL     OW 7669   4.288   2.323   3.088
 1910SOL    HW2 7670   4.210   2.362   3.049
 1910SOL    HW3 7671   4.361   2.360   3.039
 1910SOL    MW4 7672   4.288   2.333   3.077
 1911SOL     OW 7673   4.062   2.439   3.008
 1911SOL    HW2 7674   4.051   2.525   3.048
 1911SOL    HW3 7675   3.989   2.387   3.043
 1911SOL    MW4 7676   4.051   2.443   3.018
 1912SOL     OW 7677   4.034   2.697   3.108
 1912SOL    HW2 7678   4.034   2.707   3.203
 1912SOL    HW3 7679   3.957   2.746   3.079
 1912SOL    MW4 7680   4.024   2.705   3.117
 1913SOL     OW 7681   4.244   2.850   3.002
 1913SOL    HW2 7682   4.165   2.806   3.034
 1913SOL    HW3 7683   4.316   2.805   3.047
 1913SOL    MW4 7684   4.243   2.838   3.012
 1914SOL     OW 7685   4.287   3.093   3.097
 1914SOL    HW2 7686   4.203   3.137   3.080
 1914SOL    HW3 7687   4.279   3.008   3.055
 1914SOL    MW4 7688   4.275   3.088   3.089
 1915SOL     OW 7689   4.071   3.238   2.994
 1915SOL    HW2 7690   4.089   3.327   3.026
 1915SOL    HW3 7691   4.074   3.246   2.899
 1915SOL    MW4 7692   4.074   3.251   2.986
 1916SOL     OW 7693   4.080   3.523   3.068
 1916SOL    HW2 7694   4.066   3.524   3.162
 1916SOL    HW3 7695   3.993   3.538   3.030
 1916SOL    MW4 7696   4.067   3.525   3.075
 1917SOL     OW 7697   4.312   3.636   3.002
 1917SOL    HW2 7698   4.288   3.716   3.048
 1917SOL    HW3 7699   4.234   3.581   3.008
 1917SOL    MW4 7700   4.299   3.639   3.009
 1918SOL     OW 7701   4.251   3.869   3.149
 1918SOL    HW2 7702   4.179   3.919   3.110
 1918SOL    HW3 7703   4.330   3.912   3.117
 1918SOL    MW4 7704   4.252   3.881   3.139
 1919SOL     OW 7705   4.058   4.000   2.977
 1919SOL    HW2 7706   4.055   4.090   3.009
 1919SOL    HW3 7707   3.982   3.958   3.015
 1919SOL    MW4 7708   4.048   4.006   2.986
 1920SOL     OW 7709   4.030   4.261   3.074
 1920SOL    HW2 7710   4.037   4.244   3.168
 1920SOL    HW3 7711   4.105   4.318   3.055
 1920SOL    MW4 7712   4.041   4.266   3.084
 1921SOL     OW 7713   4.268   4.436   3.002
 1921SOL    HW2 7714   4.335   4.375   3.033
 1921SOL    HW3 7715   4.262   4.420   2.908
 1921SOL    MW4 7716   4.276   4.426   2.994
 1922SOL     OW 7717   0.189   4.639   3.351
 1922SOL    HW2 7718   0.253   4.704   3.381
 1922SOL    HW3 7719   0.196   4.567   3.413
 1922SOL    MW4 7720   0.198   4.638   3.363
 1923SOL     OW 7721   4.487   0.099   3.495
 1923SOL    HW2 7722   4.502   0.189   3.466
 1923SOL    HW3 7723   4.562   0.050   3.463
 1923SOL    MW4 7724   4.499   0.104   3.487
 1924SOL     OW 7725   0.013   0.376   3.411
 1924SOL    HW2 7726  -0.060   0.432   3.436
 1924SOL    HW3 7727   0.091   0.426   3.435
 1924SOL    MW4 7728   0.014   0.390   3.417
 1925SOL     OW 7729   0.226   0.522   3.515
 1925SOL    HW2 7730   0.306   0.483   3.480
 1925SOL    HW3 7731   0.225   0.611   3.480
 1925SOL    MW4 7732   0.236   0.529   3.506
 1926SOL     OW 7733   0.213   0.760   3.373
 1926SOL    HW2 7734   0.289   0.806   3.409
 1926SOL    HW3 7735   0.137   0.801   3.415
 1926SOL    MW4 7736   0.213   0.771   3.383
 1927SOL     OW 7737   0.015   0.901   3.513
 1927SOL    HW2 7738   0.016   0.907   3.608
 1927SOL    HW3 7739   0.011   0.992   3.483
 1927SOL    MW4 7740   0.014   0.914   3.521
 1928SOL     OW 7741   0.015   1.147   3.401
 1928SOL    HW2 7742   0.099   1.187   3.424
 1928SOL    HW3 7743   0.015   1.147   3.305
 1928SOL    MW4 7744   0.026   1.152   3.391
 1929SOL     OW 7745   0.227   1.313   3.480
 1929SOL    HW2 7746   0.307   1.275   3.442
 1929SOL    HW3 7747   0.220   1.399   3.439
 1929SOL    MW4 7748   0.237   1.319   3.469
 1930SOL     OW 7749   0.245   1.592   3.397
 1930SOL    HW2 7750   0.326   1.636   3.422
 1930SOL    HW3 7751   0.255   1.572   3.304
 1930SOL    MW4 7752   0.257   1.595   3.388
 1931SOL     OW 7753   0.017   1.695   3.494
 1931SOL    HW2 7754  -0.066   1.654   3.470
 1931SOL    HW3 7755   0.083   1.647   3.444
 1931SOL    MW4 7756   0.015   1.684   3.484
 1932SOL     OW 7757   4.489   1.950   3.379
 1932SOL    HW2 7758   4.498   1.861   3.414
 1932SOL    HW3 7759   4.485   1.937   3.284
 1932SOL    MW4 7760   4.490   1.936   3.371
 1933SOL     OW 7761   0.259   2.042   3.471
 1933SOL    HW2 7762   0.257   2.058   3.566
 1933SOL    HW3 7763   0.168   2.022   3.448
 1933SOL    MW4 7764   0.247   2.042   3.481
 1934SOL     OW 7765   0.228   2.278   3.345
 1934SOL    HW2 7766   0.158   2.317   3.396
 1934SOL    HW3 7767   0.243   2.192   3.386
 1934SOL    MW4 7768   0.221   2.272   3.357
 1935SOL     OW 7769   0.024   2.410   3.478
 1935SOL    HW2 7770   0.010   2.432   3.571
 1935SOL    HW3 7771  -0.059   2.371   3.450
 1935SOL    MW4 7772   0.012   2.408   3.487
 1936SOL     OW 7773   4.467   2.664   3.382
 1936SOL    HW2 7774   4.547   2.703   3.418
 1936SOL    HW3 7775   4.477   2.570   3.397
 1936SOL    MW4 7776   4.479   2.657   3.388
 1937SOL     OW 7777   0.208   2.779   3.486
 1937SOL    HW2 7778   0.299   2.753   3.476
 1937SOL    HW3 7779   0.206   2.871   3.458
 1937SOL    MW4 7780   0.220   2.788   3.481
 1938SOL     OW 7781   0.229   3.063   3.371
 1938SOL    HW2 7782   0.165   3.128   3.399
 1938SOL    HW3 7783   0.256   3.091   3.284
 1938SOL    MW4 7784   0.224   3.075   3.363
 1939SOL     OW 7785   0.049   3.222   3.499
 1939SOL    HW2 7786  -0.028   3.178   3.462
 1939SOL    HW3 7787   0.037   3.314   3.474
 1939SOL    MW4 7788   0.037   3.228   3.491
 1940SOL     OW 7789   0.010   3.488   3.431
 1940SOL    HW2 7790  -0.080   3.502   3.461
 1940SOL    HW3 7791   0.010   3.513   3.339
 1940SOL    MW4 7792  -0.002   3.493   3.423
 1941SOL     OW 7793   0.229   3.615   3.530
 1941SOL    HW2 7794   0.246   3.595   3.623
 1941SOL    HW3 7795   0.149   3.566   3.510
 1941SOL    MW4 7796   0.221   3.606   3.540
 1942SOL     OW 7797   0.225   3.876   3.402
 1942SOL    HW2 7798   0.147   3.918   3.439
 1942SOL    HW3 7799   0.223   3.787   3.437
 1942SOL    MW4 7800   0.214   3.870   3.412
 1943SOL     OW 7801   0.006   4.007   3.520
 1943SOL    HW2 7802   0.022   3.995   3.614
 1943SOL    HW3 7803   0.023   4.100   3.505
 1943SOL    MW4 7804   0.011   4.017   3.531
 1944SOL     OW 7805   4.490   4.266   3.417
 1944SOL    HW2 7806   4.406   4.306   3.440
 1944SOL    HW3 7807   4.556   4.329   3.446
 1944SOL    MW4 7808   4.487   4.280   3.424
 1945SOL     OW 7809   0.222   4.403   3.512
 1945SOL    HW2 7810   0.203   4.398   3.606
 1945SOL    HW3 7811   0.292   4.340   3.498
 1945SOL    MW4 7812   0.229   4.394   3.523
 1946SOL     OW 7813   0.628   0.019   3.378
 1946SOL    HW2 7814   0.706   0.061   3.412
 1946SOL    HW3 7815   0.651  -0.005   3.288
 1946SOL    MW4 7816   0.641   0.021   3.370
 1947SOL     OW 7817   0.390   0.118   3.465
 1947SOL    HW2 7818   0.401   0.122   3.560
 1947SOL    HW3 7819   0.468   0.072   3.434
 1947SOL    MW4 7820   0.402   0.113   3.474
 1948SOL     OW 7821   0.420   0.375   3.377
 1948SOL    HW2 7822   0.508   0.409   3.393
 1948SOL    HW3 7823   0.418   0.291   3.421
 1948SOL    MW4 7824   0.431   0.369   3.385
 1949SOL     OW 7825   0.666   0.509   3.467
 1949SOL    HW2 7826   0.649   0.489   3.559
 1949SOL    HW3 7827   0.743   0.458   3.445
 1949SOL    MW4 7828   0.674   0.500   3.476
 1950SOL     OW 7829   0.678   0.765   3.360
 1950SOL    HW2 7830   0.605   0.811   3.402
 1950SOL    HW3 7831   0.672   0.675   3.392
 1950SOL    MW4 7832   0.668   0.760   3.370
 1951SOL     OW 7833   0.454   0.893   3.474
 1951SOL    HW2 7834   0.430   0.901   3.566
 1951SOL    HW3 7835   0.440   0.980   3.437
 1951SOL    MW4 7836   0.449   0.905   3.481
 1952SOL     OW 7837   0.423   1.152   3.374
 1952SOL    HW2 7838   0.512   1.166   3.407
 1952SOL    HW3 7839   0.435   1.131   3.281
 1952SOL    MW4 7840   0.436   1.151   3.366
 1953SOL     OW 7841   0.677   1.244   3.490
 1953SOL    HW2 7842   0.760   1.208   3.459
 1953SOL    HW3 7843   0.675   1.334   3.456
 1953SOL    MW4 7844   0.688   1.251   3.481
 1954SOL     OW 7845   0.665   1.513   3.402
 1954SOL    HW2 7846   0.738   1.573   3.414
 1954SOL    HW3 7847   0.588   1.561   3.435
 1954SOL    MW4 7848   0.664   1.527   3.408
 1955SOL     OW 7849   0.485   1.674   3.507
 1955SOL    HW2 7850   0.447   1.693   3.593
 1955SOL    HW3 7851   0.495   1.760   3.466
 1955SOL    MW4 7852   0.482   1.688   3.513
 1956SOL     OW 7853   0.478   1.905   3.374
 1956SOL    HW2 7854   0.397   1.941   3.411
 1956SOL    HW3 7855   0.463   1.906   3.280
 1956SOL    MW4 7856   0.465   1.910   3.367
 1957SOL     OW 7857   0.701   2.024   3.499
 1957SOL    HW2 7858   0.696   2.015   3.594
 1957SOL    HW3 7859   0.623   1.979   3.466
 1957SOL    MW4 7860   0.690   2.017   3.508
 1958SOL     OW 7861   0.670   2.291   3.408
 1958SOL    HW2 7862   0.754   2.336   3.415
 1958SOL    HW3 7863   0.687   2.203   3.441
 1958SOL    MW4 7864   0.683   2.285   3.413
 1959SOL     OW 7865   0.432   2.432   3.452
 1959SOL    HW2 7866   0.517   2.392   3.431
 1959SOL    HW3 7867   0.368   2.375   3.411
 1959SOL    MW4 7868   0.435   2.419   3.444
 1960SOL     OW 7869   0.455   2.700   3.430
 1960SOL    HW2 7870   0.449   2.606   3.440
 1960SOL    HW3 7871   0.464   2.714   3.335
 1960SOL    MW4 7872   0.456   2.690   3.419
 1961SOL     OW 7873   0.664   2.844   3.519
 1961SOL    HW2 7874   0.732   2.795   3.472
 1961SOL    HW3 7875   0.582   2.801   3.494
 1961SOL    MW4 7876   0.662   2.832   3.509
 1962SOL     OW 7877   0.680   3.115   3.461
 1962SOL    HW2 7878   0.589   3.139   3.476
 1962SOL    HW3 7879   0.680   3.019   3.470
 1962SOL    MW4 7880   0.668   3.105   3.464
 1963SOL     OW 7881   0.408   3.224   3.481
 1963SOL    HW2 7882   0.398   3.231   3.576
 1963SOL    HW3 7883   0.335   3.170   3.453
 1963SOL    MW4 7884   0.397   3.218   3.490
 1964SOL     OW 7885   0.432   3.494   3.398
 1964SOL    HW2 7886   0.422   3.402   3.421
 1964SOL    HW3 7887   0.357   3.537   3.440
 1964SOL    MW4 7888   0.421   3.488   3.407
 1965SOL     OW 7889   0.668   3.636   3.479
 1965SOL    HW2 7890   0.735   3.569   3.464
 1965SOL    HW3 7891   0.587   3.594   3.452
 1965SOL    MW4 7892   0.666   3.621   3.474
 1966SOL     OW 7893   0.661   3.876   3.355
 1966SOL    HW2 7894   0.586   3.921   3.394
 1966SOL    HW3 7895   0.663   3.790   3.397
 1966SOL    MW4 7896   0.652   3.871   3.366
 1967SOL     OW 7897   0.459   3.990   3.513
 1967SOL    HW2 7898   0.447   4.084   3.499
 1967SOL    HW3 7899   0.376   3.951   3.486
 1967SOL    MW4 7900   0.447   3.997   3.507
 1968SOL     OW 7901   0.441   4.261   3.407
 1968SOL    HW2 7902   0.508   4.327   3.423
 1968SOL    HW3 7903   0.431   4.260   3.312
 1968SOL    MW4 7904   0.448   4.270   3.397
 1969SOL     OW 7905   0.652   4.427   3.481
 1969SOL    HW2 7906   0.735   4.395   3.446
 1969SOL    HW3 7907   0.643   4.515   3.444
 1969SOL    MW4 7908   0.661   4.434   3.471
 1970SOL     OW 7909   1.098   4.660   3.410
 1970SOL    HW2 7910   1.173   4.713   3.436
 1970SOL    HW3 7911   1.099   4.663   3.315
 1970SOL    MW4 7912   1.108   4.668   3.401
 1971SOL     OW 7913   0.868   0.125   3.483
 1971SOL    HW2 7914   0.870   0.111   3.577
 1971SOL    HW3 7915   0.948   0.083   3.451
 1971SOL    MW4 7916   0.879   0.118   3.491
 1972SOL     OW 7917   0.890   0.372   3.384
 1972SOL    HW2 7918   0.976   0.407   3.408
 1972SOL    HW3 7919   0.887   0.285   3.424
 1972SOL    MW4 7920   0.901   0.366   3.393
 1973SOL     OW 7921   1.135   0.477   3.487
 1973SOL    HW2 7922   1.111   0.463   3.579
 1973SOL    HW3 7923   1.112   0.568   3.470
 1973SOL    MW4 7924   1.129   0.487   3.497
 1974SOL     OW 7925   1.109   0.737   3.402
 1974SOL    HW2 7926   1.185   0.790   3.424
 1974SOL    HW3 7927   1.035   0.785   3.439
 1974SOL    MW4 7928   1.109   0.750   3.410
 1975SOL     OW 7929   0.884   0.877   3.498
 1975SOL    HW2 7930   0.905   0.959   3.453
 1975SOL    HW3 7931   0.812   0.839   3.447
 1975SOL    MW4 7932   0.877   0.882   3.485
 1976SOL     OW 7933   0.909   1.121   3.380
 1976SOL    HW2 7934   0.984   1.170   3.414
 1976SOL    HW3 7935   0.886   1.164   3.298
 1976SOL    MW4 7936   0.916   1.133   3.374
 1977SOL     OW 7937   1.102   1.277   3.484
 1977SOL    HW2 7938   1.130   1.283   3.576
 1977SOL    HW3 7939   1.109   1.367   3.452
 1977SOL    MW4 7940   1.107   1.290   3.492
 1978SOL     OW 7941   1.144   1.526   3.405
 1978SOL    HW2 7942   1.228   1.565   3.430
 1978SOL    HW3 7943   1.146   1.524   3.309
 1978SOL    MW4 7944   1.155   1.531   3.395
 1979SOL     OW 7945   0.908   1.684   3.474
 1979SOL    HW2 7946   0.929   1.771   3.439
 1979SOL    HW3 7947   0.990   1.635   3.467
 1979SOL    MW4 7948   0.922   1.689   3.469
 1980SOL     OW 7949   0.973   1.974   3.412
 1980SOL    HW2 7950   1.036   2.008   3.476
 1980SOL    HW3 7951   0.888   2.002   3.445
 1980SOL    MW4 7952   0.970   1.982   3.425
 1981SOL     OW 7953   1.179   2.070   3.582
 1981SOL    HW2 7954   1.235   2.010   3.533
 1981SOL    HW3 7955   1.163   2.143   3.523
 1981SOL    MW4 7956   1.184   2.071   3.568
 1982SOL     OW 7957   1.110   2.289   3.420
 1982SOL    HW2 7958   1.191   2.334   3.444
 1982SOL    HW3 7959   1.124   2.262   3.329
 1982SOL    MW4 7960   1.123   2.292   3.411
 1983SOL     OW 7961   0.891   2.450   3.486
 1983SOL    HW2 7962   0.879   2.441   3.581
 1983SOL    HW3 7963   0.973   2.403   3.469
 1983SOL    MW4 7964   0.901   2.442   3.497
 1984SOL     OW 7965   0.896   2.721   3.409
 1984SOL    HW2 7966   0.981   2.750   3.443
 1984SOL    HW3 7967   0.890   2.629   3.437
 1984SOL    MW4 7968   0.907   2.713   3.417
 1985SOL     OW 7969   1.125   2.833   3.524
 1985SOL    HW2 7970   1.129   2.836   3.620
 1985SOL    HW3 7971   1.194   2.771   3.500
 1985SOL    MW4 7972   1.135   2.825   3.534
 1986SOL     OW 7973   1.114   3.093   3.389
 1986SOL    HW2 7974   1.133   3.006   3.424
 1986SOL    HW3 7975   1.132   3.086   3.295
 1986SOL    MW4 7976   1.119   3.081   3.381
 1987SOL     OW 7977   0.924   3.238   3.521
 1987SOL    HW2 7978   0.982   3.184   3.466
 1987SOL    HW3 7979   0.836   3.205   3.501
 1987SOL    MW4 7980   0.920   3.226   3.511
 1988SOL     OW 7981   0.878   3.474   3.406
 1988SOL    HW2 7982   0.907   3.390   3.441
 1988SOL    HW3 7983   0.882   3.463   3.311
 1988SOL    MW4 7984   0.882   3.462   3.398
 1989SOL     OW 7985   1.117   3.602   3.464
 1989SOL    HW2 7986   1.124   3.599   3.560
 1989SOL    HW3 7987   1.031   3.565   3.445
 1989SOL    MW4 7988   1.106   3.597   3.474
 1990SOL     OW 7989   1.090   3.871   3.388
 1990SOL    HW2 7990   1.172   3.910   3.420
 1990SOL    HW3 7991   1.093   3.781   3.418
 1990SOL    MW4 7992   1.101   3.865   3.396
 1991SOL     OW 7993   0.860   4.028   3.455
 1991SOL    HW2 7994   0.938   3.983   3.422
 1991SOL    HW3 7995   0.786   3.983   3.415
 1991SOL    MW4 7996   0.861   4.016   3.445
 1992SOL     OW 7997   0.861   4.287   3.374
 1992SOL    HW2 7998   0.866   4.196   3.403
 1992SOL    HW3 7999   0.882   4.284   3.280
 1992SOL    MW4 8000   0.864   4.275   3.365
 1993SOL     OW 8001   1.107   4.390   3.493
 1993SOL    HW2 8002   1.028   4.349   3.455
 1993SOL    HW3 8003   1.102   4.481   3.465
 1993SOL    MW4 8004   1.096   4.396   3.484
 1994SOL     OW 8005   1.545   4.588   3.364
 1994SOL    HW2 8006   1.557   4.502   3.405
 1994SOL    HW3 8007   1.477   4.630   3.416
 1994SOL    MW4 8008   1.538   4.582   3.376
 1995SOL     OW 8009   1.335   0.099   3.499
 1995SOL    HW2 8010   1.327   0.111   3.594
 1995SOL    HW3 8011   1.351   0.188   3.466
 1995SOL    MW4 8012   1.336   0.112   3.507
 1996SOL     OW 8013   1.369   0.354   3.399
 1996SOL    HW2 8014   1.446   0.401   3.431
 1996SOL    HW3 8015   1.294   0.406   3.430
 1996SOL    MW4 8016   1.369   0.367   3.407
 1997SOL     OW 8017   1.599   0.516   3.476
 1997SOL    HW2 8018   1.591   0.515   3.571
 1997SOL    HW3 8019   1.672   0.458   3.457
 1997SOL    MW4 8020   1.607   0.509   3.486
 1998SOL     OW 8021   1.596   0.779   3.361
 1998SOL    HW2 8022   1.521   0.809   3.413
 1998SOL    HW3 8023   1.607   0.687   3.386
 1998SOL    MW4 8024   1.587   0.771   3.372
 1999SOL     OW 8025   1.348   0.872   3.461
 1999SOL    HW2 8026   1.343   0.873   3.557
 1999SOL    HW3 8027   1.363   0.964   3.438
 1999SOL    MW4 8028   1.349   0.885   3.471
 2000SOL     OW 8029   1.345   1.144   3.426
 2000SOL    HW2 8030   1.417   1.197   3.459
 2000SOL    HW3 8031   1.268   1.201   3.434
 2000SOL    MW4 8032   1.344   1.159   3.431
 2001SOL     OW 8033   1.584   1.260   3.492
 2001SOL    HW2 8034   1.605   1.251   3.585
 2001SOL    HW3 8035   1.663   1.231   3.446
 2001SOL    MW4 8036   1.597   1.255   3.498
 2002SOL     OW 8037   1.625   1.520   3.426
 2002SOL    HW2 8038   1.616   1.429   3.454
 2002SOL    HW3 8039   1.635   1.515   3.331
 2002SOL    MW4 8040   1.625   1.507   3.417
 2003SOL     OW 8041   1.373   1.641   3.481
 2003SOL    HW2 8042   1.370   1.658   3.575
 2003SOL    HW3 8043   1.457   1.598   3.467
 2003SOL    MW4 8044   1.384   1.638   3.491
 2004SOL     OW 8045   1.346   1.911   3.402
 2004SOL    HW2 8046   1.420   1.956   3.443
 2004SOL    HW3 8047   1.358   1.819   3.425
 2004SOL    MW4 8048   1.357   1.904   3.411
 2005SOL     OW 8049   1.534   2.062   3.538
 2005SOL    HW2 8050   1.603   2.014   3.493
 2005SOL    HW3 8051   1.537   2.150   3.501
 2005SOL    MW4 8052   1.544   2.067   3.527
 2006SOL     OW 8053   1.589   2.306   3.417
 2006SOL    HW2 8054   1.505   2.344   3.441
 2006SOL    HW3 8055   1.594   2.316   3.322
 2006SOL    MW4 8056   1.578   2.312   3.407
 2007SOL     OW 8057   1.346   2.431   3.524
 2007SOL    HW2 8058   1.339   2.446   3.618
 2007SOL    HW3 8059   1.340   2.518   3.485
 2007SOL    MW4 8060   1.344   2.444   3.531
 2008SOL     OW 8061   1.322   2.671   3.406
 2008SOL    HW2 8062   1.401   2.722   3.427
 2008SOL    HW3 8063   1.311   2.680   3.312
 2008SOL    MW4 8064   1.331   2.679   3.397
 2009SOL     OW 8065   1.522   2.819   3.507
 2009SOL    HW2 8066   1.608   2.778   3.494
 2009SOL    HW3 8067   1.526   2.900   3.456
 2009SOL    MW4 8068   1.534   2.824   3.499
 2010SOL     OW 8069   1.528   3.065   3.379
 2010SOL    HW2 8070   1.609   3.106   3.409
 2010SOL    HW3 8071   1.459   3.122   3.412
 2010SOL    MW4 8072   1.530   3.078   3.387
 2011SOL     OW 8073   1.334   3.231   3.484
 2011SOL    HW2 8074   1.343   3.210   3.577
 2011SOL    HW3 8075   1.249   3.193   3.460
 2011SOL    MW4 8076   1.324   3.223   3.493
 2012SOL     OW 8077   1.339   3.479   3.363
 2012SOL    HW2 8078   1.333   3.390   3.397
 2012SOL    HW3 8079   1.254   3.519   3.383
 2012SOL    MW4 8080   1.327   3.473   3.370
 2013SOL     OW 8081   1.558   3.619   3.481
 2013SOL    HW2 8082   1.555   3.587   3.571
 2013SOL    HW3 8083   1.486   3.574   3.437
 2013SOL    MW4 8084   1.548   3.609   3.487
 2014SOL     OW 8085   1.546   3.884   3.375
 2014SOL    HW2 8086   1.554   3.793   3.405
 2014SOL    HW3 8087   1.575   3.882   3.284
 2014SOL    MW4 8088   1.551   3.871   3.367
 2015SOL     OW 8089   1.316   3.987   3.459
 2015SOL    HW2 8090   1.323   4.076   3.424
 2015SOL    HW3 8091   1.402   3.948   3.442
 2015SOL    MW4 8092   1.329   3.994   3.453
 2016SOL     OW 8093   1.310   4.256   3.367
 2016SOL    HW2 8094   1.238   4.305   3.406
 2016SOL    HW3 8095   1.290   4.254   3.273
 2016SOL    MW4 8096   1.298   4.262   3.359
 2017SOL     OW 8097   1.562   4.322   3.496
 2017SOL    HW2 8098   1.636   4.285   3.448
 2017SOL    HW3 8099   1.487   4.308   3.439
 2017SOL    MW4 8100   1.562   4.315   3.482
 2018SOL     OW 8101   2.029   4.578   3.342
 2018SOL    HW2 8102   2.101   4.636   3.366
 2018SOL    HW3 8103   1.951   4.620   3.378
 2018SOL    MW4 8104   2.028   4.591   3.350
 2019SOL     OW 8105   1.819   0.050   3.423
 2019SOL    HW2 8106   1.825   0.058   3.518
 2019SOL    HW3 8107   1.729   0.022   3.406
 2019SOL    MW4 8108   1.808   0.048   3.433
 2020SOL     OW 8109   1.770   0.313   3.364
 2020SOL    HW2 8110   1.781   0.221   3.387
 2020SOL    HW3 8111   1.796   0.317   3.272
 2020SOL    MW4 8112   1.775   0.301   3.355
 2021SOL     OW 8113   2.005   0.451   3.454
 2021SOL    HW2 8114   2.003   0.532   3.404
 2021SOL    HW3 8115   1.925   0.405   3.429
 2021SOL    MW4 8116   1.995   0.455   3.444
 2022SOL     OW 8117   2.025   0.709   3.369
 2022SOL    HW2 8118   2.095   0.770   3.393
 2022SOL    HW3 8119   2.036   0.696   3.275
 2022SOL    MW4 8120   2.036   0.716   3.360
 2023SOL     OW 8121   1.817   0.868   3.494
 2023SOL    HW2 8122   1.890   0.815   3.461
 2023SOL    HW3 8123   1.740   0.832   3.450
 2023SOL    MW4 8124   1.816   0.856   3.484
 2024SOL     OW 8125   1.817   1.143   3.373
 2024SOL    HW2 8126   1.880   1.180   3.435
 2024SOL    HW3 8127   1.809   1.051   3.399
 2024SOL    MW4 8128   1.825   1.136   3.384
 2025SOL     OW 8129   2.004   1.315   3.494
 2025SOL    HW2 8130   2.006   1.322   3.589
 2025SOL    HW3 8131   2.018   1.405   3.463
 2025SOL    MW4 8132   2.006   1.328   3.502
 2026SOL     OW 8133   2.011   1.561   3.367
 2026SOL    HW2 8134   2.091   1.598   3.405
 2026SOL    HW3 8135   1.940   1.607   3.411
 2026SOL    MW4 8136   2.012   1.572   3.378
 2027SOL     OW 8137   1.823   1.695   3.495
 2027SOL    HW2 8138   1.796   1.783   3.470
 2027SOL    HW3 8139   1.750   1.639   3.467
 2027SOL    MW4 8140   1.810   1.699   3.488
 2028SOL     OW 8141   1.745   1.940   3.391
 2028SOL    HW2 8142   1.818   1.995   3.420
 2028SOL    HW3 8143   1.753   1.939   3.295
 2028SOL    MW4 8144   1.756   1.947   3.382
 2029SOL     OW 8145   1.990   2.075   3.496
 2029SOL    HW2 8146   2.070   2.030   3.467
 2029SOL    HW3 8147   1.998   2.163   3.462
 2029SOL    MW4 8148   2.002   2.080   3.488
 2030SOL     OW 8149   2.027   2.318   3.387
 2030SOL    HW2 8150   2.101   2.363   3.428
 2030SOL    HW3 8151   2.053   2.308   3.296
 2030SOL    MW4 8152   2.041   2.323   3.380
 2031SOL     OW 8153   1.820   2.445   3.502
 2031SOL    HW2 8154   1.888   2.400   3.452
 2031SOL    HW3 8155   1.741   2.393   3.487
 2031SOL    MW4 8156   1.818   2.433   3.493
 2032SOL     OW 8157   1.757   2.708   3.415
 2032SOL    HW2 8158   1.842   2.753   3.414
 2032SOL    HW3 8159   1.775   2.622   3.452
 2032SOL    MW4 8160   1.771   2.703   3.420
 2033SOL     OW 8161   2.001   2.830   3.413
 2033SOL    HW2 8162   2.010   2.832   3.509
 2033SOL    HW3 8163   2.010   2.921   3.386
 2033SOL    MW4 8164   2.003   2.842   3.422
 2034SOL     OW 8165   2.012   3.105   3.339
 2034SOL    HW2 8166   2.081   3.155   3.382
 2034SOL    HW3 8167   1.934   3.119   3.394
 2034SOL    MW4 8168   2.010   3.114   3.352
 2035SOL     OW 8169   1.760   3.182   3.479
 2035SOL    HW2 8170   1.748   3.186   3.574
 2035SOL    HW3 8171   1.783   3.272   3.454
 2035SOL    MW4 8172   1.762   3.195   3.489
 2036SOL     OW 8173   1.804   3.455   3.406
 2036SOL    HW2 8174   1.727   3.508   3.428
 2036SOL    HW3 8175   1.811   3.462   3.311
 2036SOL    MW4 8176   1.794   3.463   3.396
 2037SOL     OW 8177   2.043   3.597   3.449
 2037SOL    HW2 8178   2.112   3.552   3.401
 2037SOL    HW3 8179   1.974   3.532   3.460
 2037SOL    MW4 8180   2.043   3.583   3.444
 2038SOL     OW 8181   2.043   3.836   3.343
 2038SOL    HW2 8182   1.972   3.889   3.379
 2038SOL    HW3 8183   2.032   3.751   3.385
 2038SOL    MW4 8184   2.032   3.832   3.353
 2039SOL     OW 8185   1.799   3.969   3.438
 2039SOL    HW2 8186   1.796   3.988   3.531
 2039SOL    HW3 8187   1.711   3.935   3.418
 2039SOL    MW4 8188   1.787   3.967   3.447
 2040SOL     OW 8189   1.791   4.235   3.363
 2040SOL    HW2 8190   1.779   4.142   3.382
 2040SOL    HW3 8191   1.805   4.239   3.268
 2040SOL    MW4 8192   1.792   4.223   3.353
 2041SOL     OW 8193   2.023   4.331   3.478
 2041SOL    HW2 8194   1.945   4.290   3.440
 2041SOL    HW3 8195   2.022   4.420   3.444
 2041SOL    MW4 8196   2.012   4.337   3.468
 2042SOL     OW 8197   2.501   4.630   3.401
 2042SOL    HW2 8198   2.499   4.536   3.416
 2042SOL    HW3 8199   2.489   4.640   3.307
 2042SOL    MW4 8200   2.499   4.619   3.390
 2043SOL     OW 8201   2.249   0.070   3.441
 2043SOL    HW2 8202   2.258   0.163   3.421
 2043SOL    HW3 8203   2.338   0.035   3.432
 2043SOL    MW4 8204   2.262   0.078   3.437
 2044SOL     OW 8205   2.251   0.353   3.364
 2044SOL    HW2 8206   2.332   0.383   3.405
 2044SOL    HW3 8207   2.182   0.394   3.415
 2044SOL    MW4 8208   2.253   0.362   3.376
 2045SOL     OW 8209   2.479   0.504   3.474
 2045SOL    HW2 8210   2.539   0.437   3.441
 2045SOL    HW3 8211   2.509   0.586   3.434
 2045SOL    MW4 8212   2.491   0.506   3.464
 2046SOL     OW 8213   2.441   0.803   3.414
 2046SOL    HW2 8214   2.518   0.858   3.426
 2046SOL    HW3 8215   2.434   0.790   3.319
 2046SOL    MW4 8216   2.450   0.808   3.403
 2047SOL     OW 8217   2.201   0.912   3.462
 2047SOL    HW2 8218   2.205   1.006   3.443
 2047SOL    HW3 8219   2.292   0.884   3.465
 2047SOL    MW4 8220   2.214   0.921   3.460
 2048SOL     OW 8221   2.221   1.177   3.368
 2048SOL    HW2 8222   2.303   1.223   3.388
 2048SOL    HW3 8223   2.155   1.222   3.420
 2048SOL    MW4 8224   2.223   1.189   3.377
 2049SOL     OW 8225   2.463   1.274   3.452
 2049SOL    HW2 8226   2.462   1.270   3.547
 2049SOL    HW3 8227   2.535   1.217   3.426
 2049SOL    MW4 8228   2.472   1.266   3.461
 2050SOL     OW 8229   2.477   1.539   3.375
 2050SOL    HW2 8230   2.482   1.453   3.418
 2050SOL    HW3 8231   2.475   1.520   3.282
 2050SOL    MW4 8232   2.478   1.525   3.369
 2051SOL     OW 8233   2.242   1.678   3.479
 2051SOL    HW2 8234   2.240   1.670   3.574
 2051SOL    HW3 8235   2.322   1.634   3.452
 2051SOL    MW4 8236   2.252   1.671   3.488
 2052SOL     OW 8237   2.213   1.953   3.410
 2052SOL    HW2 8238   2.223   1.863   3.443
 2052SOL    HW3 8239   2.210   1.943   3.315
 2052SOL    MW4 8240   2.214   1.940   3.402
 2053SOL     OW 8241   2.445   2.083   3.474
 2053SOL    HW2 8242   2.449   2.087   3.570
 2053SOL    HW3 8243   2.358   2.047   3.456
 2053SOL    MW4 8244   2.434   2.079   3.484
 2054SOL     OW 8245   2.437   2.346   3.387
 2054SOL    HW2 8246   2.516   2.386   3.425
 2054SOL    HW3 8247   2.433   2.259   3.427
 2054SOL    MW4 8248   2.447   2.340   3.397
 2055SOL     OW 8249   2.213   2.474   3.516
 2055SOL    HW2 8250   2.213   2.558   3.470
 2055SOL    HW3 8251   2.294   2.431   3.490
 2055SOL    MW4 8252   2.223   2.479   3.507
 2056SOL     OW 8253   2.233   2.713   3.365
 2056SOL    HW2 8254   2.154   2.762   3.383
 2056SOL    HW3 8255   2.236   2.707   3.269
 2056SOL    MW4 8256   2.223   2.719   3.355
 2057SOL     OW 8257   2.442   2.837   3.491
 2057SOL    HW2 8258   2.451   2.926   3.459
 2057SOL    HW3 8259   2.361   2.805   3.451
 2057SOL    MW4 8260   2.433   2.844   3.481
 2058SOL     OW 8261   2.491   3.079   3.340
 2058SOL    HW2 8262   2.569   3.124   3.373
 2058SOL    HW3 8263   2.509   3.062   3.248
 2058SOL    MW4 8264   2.503   3.082   3.333
 2059SOL     OW 8265   2.246   3.214   3.422
 2059SOL    HW2 8266   2.230   3.200   3.515
 2059SOL    HW3 8267   2.329   3.169   3.405
 2059SOL    MW4 8268   2.255   3.207   3.432
 2060SOL     OW 8269   2.265   3.477   3.342
 2060SOL    HW2 8270   2.268   3.390   3.382
 2060SOL    HW3 8271   2.257   3.459   3.248
 2060SOL    MW4 8272   2.264   3.463   3.335
 2061SOL     OW 8273   2.462   3.621   3.453
 2061SOL    HW2 8274   2.489   3.705   3.417
 2061SOL    HW3 8275   2.389   3.593   3.398
 2061SOL    MW4 8276   2.456   3.628   3.441
 2062SOL     OW 8277   2.492   3.873   3.345
 2062SOL    HW2 8278   2.569   3.914   3.386
 2062SOL    HW3 8279   2.417   3.910   3.392
 2062SOL    MW4 8280   2.492   3.884   3.357
 2063SOL     OW 8281   2.255   3.971   3.470
 2063SOL    HW2 8282   2.259   4.055   3.424
 2063SOL    HW3 8283   2.192   3.920   3.420
 2063SOL    MW4 8284   2.247   3.976   3.458
 2064SOL     OW 8285   2.244   4.221   3.375
 2064SOL    HW2 8286   2.160   4.256   3.406
 2064SOL    HW3 8287   2.238   4.226   3.280
 2064SOL    MW4 8288   2.232   4.226   3.367
 2065SOL     OW 8289   2.470   4.366   3.470
 2065SOL    HW2 8290   2.456   4.382   3.563
 2065SOL    HW3 8291   2.391   4.320   3.441
 2065SOL    MW4 8292   2.458   4.362   3.478
 2066SOL     OW 8293   2.922   4.660   3.405
 2066SOL    HW2 8294   2.845   4.696   3.449
 2066SOL    HW3 8295   2.898   4.658   3.312
 2066SOL    MW4 8296   2.909   4.665   3.398
 2067SOL     OW 8297   2.704   0.105   3.513
 2067SOL    HW2 8298   2.707   0.184   3.460
 2067SOL    HW3 8299   2.639   0.050   3.470
 2067SOL    MW4 8300   2.696   0.108   3.501
 2068SOL     OW 8301   2.690   0.336   3.380
 2068SOL    HW2 8302   2.759   0.393   3.415
 2068SOL    HW3 8303   2.697   0.345   3.285
 2068SOL    MW4 8304   2.700   0.345   3.372
 2069SOL     OW 8305   2.930   0.489   3.447
 2069SOL    HW2 8306   2.932   0.495   3.542
 2069SOL    HW3 8307   2.920   0.579   3.416
 2069SOL    MW4 8308   2.929   0.501   3.455
 2070SOL     OW 8309   2.929   0.741   3.333
 2070SOL    HW2 8310   3.001   0.791   3.373
 2070SOL    HW3 8311   2.850   0.779   3.371
 2070SOL    MW4 8312   2.928   0.752   3.343
 2071SOL     OW 8313   2.717   0.872   3.456
 2071SOL    HW2 8314   2.715   0.880   3.551
 2071SOL    HW3 8315   2.731   0.961   3.425
 2071SOL    MW4 8316   2.718   0.885   3.465
 2072SOL     OW 8317   2.716   1.130   3.358
 2072SOL    HW2 8318   2.777   1.196   3.391
 2072SOL    HW3 8319   2.721   1.138   3.263
 2072SOL    MW4 8320   2.725   1.140   3.350
 2073SOL     OW 8321   2.912   1.295   3.461
 2073SOL    HW2 8322   2.918   1.307   3.556
 2073SOL    HW3 8323   2.991   1.246   3.438
 2073SOL    MW4 8324   2.923   1.290   3.470
 2074SOL     OW 8325   2.882   1.546   3.357
 2074SOL    HW2 8326   2.803   1.585   3.395
 2074SOL    HW3 8327   2.893   1.464   3.406
 2074SOL    MW4 8328   2.873   1.541   3.369
 2075SOL     OW 8329   2.677   1.703   3.481
 2075SOL    HW2 8330   2.677   1.789   3.439
 2075SOL    HW3 8331   2.597   1.661   3.448
 2075SOL    MW4 8332   2.666   1.708   3.471
 2076SOL     OW 8333   2.653   1.951   3.346
 2076SOL    HW2 8334   2.579   2.009   3.363
 2076SOL    HW3 8335   2.648   1.933   3.252
 2076SOL    MW4 8336   2.643   1.956   3.336
 2077SOL     OW 8337   2.900   2.052   3.457
 2077SOL    HW2 8338   2.883   2.032   3.548
 2077SOL    HW3 8339   2.828   2.012   3.409
 2077SOL    MW4 8340   2.889   2.044   3.462
 2078SOL     OW 8341   2.866   2.339   3.393
 2078SOL    HW2 8342   2.889   2.255   3.431
 2078SOL    HW3 8343   2.871   2.324   3.298
 2078SOL    MW4 8344   2.869   2.326   3.385
 2079SOL     OW 8345   2.677   2.490   3.499
 2079SOL    HW2 8346   2.661   2.468   3.591
 2079SOL    HW3 8347   2.753   2.437   3.474
 2079SOL    MW4 8348   2.685   2.480   3.508
 2080SOL     OW 8349   2.629   2.701   3.340
 2080SOL    HW2 8350   2.634   2.619   3.389
 2080SOL    HW3 8351   2.569   2.756   3.391
 2080SOL    MW4 8352   2.622   2.698   3.353
 2081SOL     OW 8353   2.871   2.832   3.463
 2081SOL    HW2 8354   2.880   2.812   3.556
 2081SOL    HW3 8355   2.788   2.791   3.438
 2081SOL    MW4 8356   2.861   2.824   3.472
 2082SOL     OW 8357   2.947   3.085   3.364
 2082SOL    HW2 8358   2.944   2.998   3.404
 2082SOL    HW3 8359   2.946   3.068   3.269
 2082SOL    MW4 8360   2.947   3.071   3.357
 2083SOL     OW 8361   2.700   3.227   3.407
 2083SOL    HW2 8362   2.696   3.230   3.502
 2083SOL    HW3 8363   2.783   3.183   3.388
 2083SOL    MW4 8364   2.710   3.221   3.417
 2084SOL     OW 8365   2.680   3.499   3.326
 2084SOL    HW2 8366   2.691   3.406   3.346
 2084SOL    HW3 8367   2.596   3.522   3.365
 2084SOL    MW4 8368   2.670   3.490   3.334
 2085SOL     OW 8369   2.877   3.630   3.477
 2085SOL    HW2 8370   2.871   3.720   3.444
 2085SOL    HW3 8371   2.814   3.580   3.425
 2085SOL    MW4 8372   2.868   3.635   3.466
 2086SOL     OW 8373   2.923   3.882   3.381
 2086SOL    HW2 8374   2.999   3.905   3.435
 2086SOL    HW3 8375   2.850   3.932   3.420
 2086SOL    MW4 8376   2.923   3.892   3.394
 2087SOL     OW 8377   2.710   4.010   3.483
 2087SOL    HW2 8378   2.703   4.019   3.578
 2087SOL    HW3 8379   2.698   4.099   3.450
 2087SOL    MW4 8380   2.708   4.023   3.491
 2088SOL     OW 8381   2.701   4.257   3.347
 2088SOL    HW2 8382   2.773   4.310   3.381
 2088SOL    HW3 8383   2.627   4.278   3.403
 2088SOL    MW4 8384   2.701   4.267   3.359
 2089SOL     OW 8385   2.905   4.385   3.485
 2089SOL    HW2 8386   2.890   4.402   3.578
 2089SOL    HW3 8387   2.918   4.472   3.447
 2089SOL    MW4 8388   2.905   4.399   3.492
 2090SOL     OW 8389   3.400   4.655   3.376
 2090SOL    HW2 8390   3.317   4.699   3.395
 2090SOL    HW3 8391   3.402   4.645   3.281
 2090SOL    MW4 8392   3.390   4.660   3.366
 2091SOL     OW 8393   3.166   0.122   3.453
 2091SOL    HW2 8394   3.154   0.215   3.433
 2091SOL    HW3 8395   3.085   0.080   3.423
 2091SOL    MW4 8396   3.154   0.129   3.446
 2092SOL     OW 8397   3.163   0.380   3.354
 2092SOL    HW2 8398   3.084   0.424   3.385
 2092SOL    HW3 8399   3.162   0.394   3.259
 2092SOL    MW4 8400   3.152   0.388   3.346
 2093SOL     OW 8401   3.345   0.533   3.490
 2093SOL    HW2 8402   3.364   0.510   3.581
 2093SOL    HW3 8403   3.286   0.464   3.460
 2093SOL    MW4 8404   3.340   0.521   3.498
 2094SOL     OW 8405   3.362   0.781   3.353
 2094SOL    HW2 8406   3.437   0.821   3.395
 2094SOL    HW3 8407   3.360   0.691   3.385
 2094SOL    MW4 8408   3.371   0.774   3.362
 2095SOL     OW 8409   3.124   0.877   3.470
 2095SOL    HW2 8410   3.120   0.968   3.441
 2095SOL    HW3 8411   3.204   0.842   3.430
 2095SOL    MW4 8412   3.134   0.884   3.461
 2096SOL     OW 8413   3.121   1.140   3.379
 2096SOL    HW2 8414   3.206   1.173   3.406
 2096SOL    HW3 8415   3.127   1.130   3.284
 2096SOL    MW4 8416   3.133   1.143   3.370
 2097SOL     OW 8417   3.355   1.256   3.481
 2097SOL    HW2 8418   3.440   1.220   3.455
 2097SOL    HW3 8419   3.347   1.336   3.430
 2097SOL    MW4 8420   3.365   1.262   3.471
 2098SOL     OW 8421   3.342   1.525   3.398
 2098SOL    HW2 8422   3.421   1.557   3.441
 2098SOL    HW3 8423   3.270   1.570   3.442
 2098SOL    MW4 8424   3.343   1.535   3.409
 2099SOL     OW 8425   3.083   1.644   3.502
 2099SOL    HW2 8426   3.096   1.717   3.442
 2099SOL    HW3 8427   3.006   1.598   3.467
 2099SOL    MW4 8428   3.075   1.647   3.490
 2100SOL     OW 8429   3.137   1.895   3.379
 2100SOL    HW2 8430   3.076   1.965   3.402
 2100SOL    HW3 8431   3.154   1.908   3.286
 2100SOL    MW4 8432   3.132   1.906   3.370
 2101SOL     OW 8433   3.360   2.034   3.503
 2101SOL    HW2 8434   3.342   2.124   3.477
 2101SOL    HW3 8435   3.296   1.982   3.454
 2101SOL    MW4 8436   3.349   2.039   3.493
 2102SOL     OW 8437   3.331   2.277   3.339
 2102SOL    HW2 8438   3.400   2.338   3.365
 2102SOL    HW3 8439   3.250   2.327   3.347
 2102SOL    MW4 8440   3.330   2.291   3.344
 2103SOL     OW 8441   3.113   2.467   3.428
 2103SOL    HW2 8442   3.111   2.552   3.385
 2103SOL    HW3 8443   3.024   2.433   3.421
 2103SOL    MW4 8444   3.101   2.473   3.422
 2104SOL     OW 8445   3.096   2.753   3.333
 2104SOL    HW2 8446   3.170   2.765   3.393
 2104SOL    HW3 8447   3.019   2.774   3.385
 2104SOL    MW4 8448   3.096   2.758   3.348
 2105SOL     OW 8449   3.338   2.816   3.444
 2105SOL    HW2 8450   3.419   2.778   3.409
 2105SOL    HW3 8451   3.343   2.908   3.419
 2105SOL    MW4 8452   3.350   2.823   3.436
 2106SOL     OW 8453   3.354   3.089   3.384
 2106SOL    HW2 8454   3.434   3.124   3.424
 2106SOL    HW3 8455   3.283   3.133   3.432
 2106SOL    MW4 8456   3.355   3.099   3.396
 2107SOL     OW 8457   3.135   3.215   3.505
 2107SOL    HW2 8458   3.143   3.307   3.479
 2107SOL    HW3 8459   3.064   3.180   3.451
 2107SOL    MW4 8460   3.127   3.222   3.495
 2108SOL     OW 8461   3.123   3.475   3.381
 2108SOL    HW2 8462   3.038   3.512   3.405
 2108SOL    HW3 8463   3.120   3.464   3.286
 2108SOL    MW4 8464   3.112   3.479   3.372
 2109SOL     OW 8465   3.372   3.589   3.462
 2109SOL    HW2 8466   3.371   3.679   3.431
 2109SOL    HW3 8467   3.280   3.561   3.456
 2109SOL    MW4 8468   3.360   3.597   3.457
 2110SOL     OW 8469   3.372   3.848   3.366
 2110SOL    HW2 8470   3.451   3.889   3.403
 2110SOL    HW3 8471   3.300   3.902   3.397
 2110SOL    MW4 8472   3.373   3.860   3.375
 2111SOL     OW 8473   3.157   4.014   3.486
 2111SOL    HW2 8474   3.166   4.018   3.581
 2111SOL    HW3 8475   3.147   4.105   3.458
 2111SOL    MW4 8476   3.157   4.027   3.495
 2112SOL     OW 8477   3.150   4.288   3.403
 2112SOL    HW2 8478   3.231   4.330   3.431
 2112SOL    HW3 8479   3.081   4.331   3.454
 2112SOL    MW4 8480   3.151   4.299   3.414
 2113SOL     OW 8481   3.393   4.404   3.479
 2113SOL    HW2 8482   3.412   4.414   3.572
 2113SOL    HW3 8483   3.400   4.492   3.443
 2113SOL    MW4 8484   3.396   4.417   3.487
 2114SOL     OW 8485   3.780   4.664   3.452
 2114SOL    HW2 8486   3.711   4.720   3.486
 2114SOL    HW3 8487   3.776   4.677   3.357
 2114SOL    MW4 8488   3.770   4.673   3.444
 2115SOL     OW 8489   3.564   0.162   3.505
 2115SOL    HW2 8490   3.555   0.243   3.455
 2115SOL    HW3 8491   3.506   0.099   3.461
 2115SOL    MW4 8492   3.555   0.164   3.493
 2116SOL     OW 8493   3.588   0.401   3.363
 2116SOL    HW2 8494   3.663   0.432   3.413
 2116SOL    HW3 8495   3.513   0.444   3.404
 2116SOL    MW4 8496   3.588   0.411   3.375
 2117SOL     OW 8497   3.801   0.532   3.514
 2117SOL    HW2 8498   3.806   0.531   3.609
 2117SOL    HW3 8499   3.888   0.503   3.485
 2117SOL    MW4 8500   3.813   0.528   3.523
 2118SOL     OW 8501   3.821   0.804   3.425
 2118SOL    HW2 8502   3.899   0.846   3.460
 2118SOL    HW3 8503   3.821   0.717   3.464
 2118SOL    MW4 8504   3.831   0.798   3.434
 2119SOL     OW 8505   3.577   0.900   3.486
 2119SOL    HW2 8506   3.576   0.906   3.582
 2119SOL    HW3 8507   3.656   0.850   3.466
 2119SOL    MW4 8508   3.587   0.894   3.496
 2120SOL     OW 8509   3.590   1.179   3.362
 2120SOL    HW2 8510   3.589   1.086   3.382
 2120SOL    HW3 8511   3.584   1.183   3.266
 2120SOL    MW4 8512   3.589   1.167   3.352
 2121SOL     OW 8513   3.808   1.307   3.481
 2121SOL    HW2 8514   3.791   1.309   3.575
 2121SOL    HW3 8515   3.729   1.271   3.442
 2121SOL    MW4 8516   3.795   1.303   3.488
 2122SOL     OW 8517   3.830   1.564   3.402
 2122SOL    HW2 8518   3.914   1.598   3.433
 2122SOL    HW3 8519   3.830   1.472   3.431
 2122SOL    MW4 8520   3.841   1.556   3.410
 2123SOL     OW 8521   3.582   1.634   3.508
 2123SOL    HW2 8522   3.593   1.728   3.500
 2123SOL    HW3 8523   3.667   1.598   3.479
 2123SOL    MW4 8524   3.595   1.641   3.503
 2124SOL     OW 8525   3.580   1.896   3.419
 2124SOL    HW2 8526   3.659   1.940   3.451
 2124SOL    HW3 8527   3.508   1.938   3.466
 2124SOL    MW4 8528   3.581   1.907   3.429
 2125SOL     OW 8529   3.814   2.030   3.493
 2125SOL    HW2 8530   3.798   2.035   3.588
 2125SOL    HW3 8531   3.901   1.990   3.486
 2125SOL    MW4 8532   3.823   2.025   3.505
 2126SOL     OW 8533   3.787   2.320   3.407
 2126SOL    HW2 8534   3.869   2.364   3.431
 2126SOL    HW3 8535   3.805   2.227   3.421
 2126SOL    MW4 8536   3.800   2.313   3.412
 2127SOL     OW 8537   3.528   2.418   3.449
 2127SOL    HW2 8538   3.536   2.511   3.428
 2127SOL    HW3 8539   3.613   2.380   3.425
 2127SOL    MW4 8540   3.540   2.425   3.443
 2128SOL     OW 8541   3.580   2.713   3.369
 2128SOL    HW2 8542   3.657   2.743   3.418
 2128SOL    HW3 8543   3.613   2.692   3.282
 2128SOL    MW4 8544   3.594   2.714   3.364
 2129SOL     OW 8545   3.824   2.834   3.446
 2129SOL    HW2 8546   3.821   2.830   3.542
 2129SOL    HW3 8547   3.836   2.927   3.426
 2129SOL    MW4 8548   3.825   2.846   3.456
 2130SOL     OW 8549   3.835   3.123   3.413
 2130SOL    HW2 8550   3.912   3.169   3.446
 2130SOL    HW3 8551   3.831   3.147   3.321
 2130SOL    MW4 8552   3.844   3.132   3.405
 2131SOL     OW 8553   3.577   3.191   3.498
 2131SOL    HW2 8554   3.603   3.274   3.458
 2131SOL    HW3 8555   3.657   3.139   3.498
 2131SOL    MW4 8556   3.591   3.195   3.492
 2132SOL     OW 8557   3.599   3.448   3.384
 2132SOL    HW2 8558   3.513   3.491   3.378
 2132SOL    HW3 8559   3.626   3.436   3.293
 2132SOL    MW4 8560   3.591   3.452   3.371
 2133SOL     OW 8561   3.814   3.605   3.485
 2133SOL    HW2 8562   3.813   3.626   3.579
 2133SOL    HW3 8563   3.730   3.562   3.470
 2133SOL    MW4 8564   3.803   3.602   3.496
 2134SOL     OW 8565   3.810   3.849   3.375
 2134SOL    HW2 8566   3.740   3.897   3.421
 2134SOL    HW3 8567   3.807   3.761   3.412
 2134SOL    MW4 8568   3.800   3.844   3.386
 2135SOL     OW 8569   3.602   3.979   3.494
 2135SOL    HW2 8570   3.597   4.005   3.586
 2135SOL    HW3 8571   3.604   4.061   3.445
 2135SOL    MW4 8572   3.602   3.993   3.500
 2136SOL     OW 8573   3.590   4.232   3.369
 2136SOL    HW2 8574   3.520   4.288   3.401
 2136SOL    HW3 8575   3.581   4.234   3.274
 2136SOL    MW4 8576   3.580   4.240   3.360
 2137SOL     OW 8577   3.814   4.370   3.461
 2137SOL    HW2 8578   3.735   4.324   3.432
 2137SOL    HW3 8579   3.797   4.462   3.440
 2137SOL    MW4 8580   3.801   4.376   3.454
 2138SOL     OW 8581   4.256   4.639   3.418
 2138SOL    HW2 8582   4.246   4.547   3.442
 2138SOL    HW3 8583   4.346   4.661   3.441
 2138SOL    MW4 8584   4.267   4.630   3.424
 2139SOL     OW 8585   4.031   0.147   3.509
 2139SOL    HW2 8586   4.094   0.085   3.471
 2139SOL    HW3 8587   3.945   0.112   3.486
 2139SOL    MW4 8588   4.028   0.134   3.501
 2140SOL     OW 8589   4.043   0.413   3.412
 2140SOL    HW2 8590   4.041   0.322   3.441
 2140SOL    HW3 8591   4.020   0.410   3.320
 2140SOL    MW4 8592   4.040   0.400   3.404
 2141SOL     OW 8593   4.280   0.516   3.518
 2141SOL    HW2 8594   4.267   0.608   3.493
 2141SOL    HW3 8595   4.202   0.472   3.484
 2141SOL    MW4 8596   4.268   0.522   3.510
 2142SOL     OW 8597   4.276   0.776   3.411
 2142SOL    HW2 8598   4.353   0.826   3.438
 2142SOL    HW3 8599   4.296   0.749   3.321
 2142SOL    MW4 8600   4.289   0.779   3.403
 2143SOL     OW 8601   4.043   0.931   3.519
 2143SOL    HW2 8602   4.044   1.025   3.503
 2143SOL    HW3 8603   4.115   0.897   3.467
 2143SOL    MW4 8604   4.052   0.939   3.510
 2144SOL     OW 8605   4.037   1.186   3.413
 2144SOL    HW2 8606   4.110   1.234   3.453
 2144SOL    HW3 8607   3.959   1.232   3.443
 2144SOL    MW4 8608   4.037   1.199   3.422
 2145SOL     OW 8609   4.289   1.274   3.507
 2145SOL    HW2 8610   4.296   1.361   3.468
 2145SOL    HW3 8611   4.362   1.224   3.469
 2145SOL    MW4 8612   4.299   1.279   3.497
 2146SOL     OW 8613   4.308   1.514   3.406
 2146SOL    HW2 8614   4.229   1.562   3.431
 2146SOL    HW3 8615   4.324   1.539   3.315
 2146SOL    MW4 8616   4.300   1.523   3.398
 2147SOL     OW 8617   4.083   1.646   3.501
 2147SOL    HW2 8618   4.065   1.650   3.595
 2147SOL    HW3 8619   4.068   1.735   3.469
 2147SOL    MW4 8620   4.078   1.658   3.509
 2148SOL     OW 8621   4.055   1.905   3.408
 2148SOL    HW2 8622   4.130   1.950   3.448
 2148SOL    HW3 8623   4.070   1.912   3.314
 2148SOL    MW4 8624   4.067   1.912   3.401
 2149SOL     OW 8625   4.268   2.083   3.486
 2149SOL    HW2 8626   4.264   2.170   3.448
 2149SOL    HW3 8627   4.352   2.047   3.455
 2149SOL    MW4 8628   4.279   2.089   3.477
 2150SOL     OW 8629   4.267   2.329   3.367
 2150SOL    HW2 8630   4.180   2.365   3.384
 2150SOL    HW3 8631   4.274   2.329   3.271
 2150SOL    MW4 8632   4.256   2.334   3.356
 2151SOL     OW 8633   4.021   2.433   3.450
 2151SOL    HW2 8634   4.045   2.439   3.542
 2151SOL    HW3 8635   4.026   2.523   3.418
 2151SOL    MW4 8636   4.025   2.446   3.458
 2152SOL     OW 8637   4.061   2.711   3.382
 2152SOL    HW2 8638   4.132   2.755   3.429
 2152SOL    HW3 8639   3.981   2.749   3.418
 2152SOL    MW4 8640   4.060   2.722   3.393
 2153SOL     OW 8641   4.278   2.847   3.488
 2153SOL    HW2 8642   4.308   2.862   3.577
 2153SOL    HW3 8643   4.344   2.787   3.450
 2153SOL    MW4 8644   4.291   2.841   3.495
 2154SOL     OW 8645   4.306   3.114   3.382
 2154SOL    HW2 8646   4.284   3.028   3.416
 2154SOL    HW3 8647   4.299   3.105   3.287
 2154SOL    MW4 8648   4.302   3.102   3.374
 2155SOL     OW 8649   4.076   3.266   3.490
 2155SOL    HW2 8650   4.091   3.342   3.434
 2155SOL    HW3 8651   4.145   3.204   3.467
 2155SOL    MW4 8652   4.087   3.267   3.480
 2156SOL     OW 8653   4.053   3.509   3.360
 2156SOL    HW2 8654   4.123   3.541   3.416
 2156SOL    HW3 8655   3.973   3.542   3.399
 2156SOL    MW4 8656   4.052   3.517   3.372
 2157SOL     OW 8657   4.257   3.575   3.532
 2157SOL    HW2 8658   4.241   3.583   3.626
 2157SOL    HW3 8659   4.297   3.659   3.507
 2157SOL    MW4 8660   4.260   3.587   3.541
 2158SOL     OW 8661   4.278   3.852   3.430
 2158SOL    HW2 8662   4.340   3.918   3.462
 2158SOL    HW3 8663   4.283   3.859   3.334
 2158SOL    MW4 8664   4.287   3.862   3.421
 2159SOL     OW 8665   4.029   3.982   3.496
 2159SOL    HW2 8666   4.109   3.935   3.471
 2159SOL    HW3 8667   3.959   3.938   3.448
 2159SOL    MW4 8668   4.030   3.970   3.487
 2160SOL     OW 8669   4.029   4.229   3.364
 2160SOL    HW2 8670   4.029   4.148   3.413
 2160SOL    HW3 8671   3.976   4.289   3.416
 2160SOL    MW4 8672   4.022   4.226   3.377
 2161SOL     OW 8673   4.246   4.388   3.482
 2161SOL    HW2 8674   4.235   4.369   3.575
 2161SOL    HW3 8675   4.179   4.336   3.438
 2161SOL    MW4 8676   4.236   4.379   3.488
 2162SOL     OW 8677   0.202   4.639   3.822
 2162SOL    HW2 8678   0.217   4.645   3.916
 2162SOL    HW3 8679   0.112   4.672   3.810
 2162SOL    MW4 8680   0.192   4.644   3.833
 2163SOL     OW 8681   4.443   0.072   3.762
 2163SOL    HW2 8682   4.444   0.165   3.783
 2163SOL    HW3 8683   4.457   0.068   3.667
 2163SOL    MW4 8684   4.445   0.084   3.752
 2164SOL     OW 8685   4.466   0.340   3.836
 2164SOL    HW2 8686   4.407   0.415   3.827
 2164SOL    HW3 8687   4.553   0.375   3.816
 2164SOL    MW4 8688   4.470   0.354   3.832
 2165SOL     OW 8689   0.213   0.520   3.800
 2165SOL    HW2 8690   0.232   0.603   3.843
 2165SOL    HW3 8691   0.222   0.538   3.707
 2165SOL    MW4 8692   0.217   0.533   3.794
 2166SOL     OW 8693   0.239   0.767   3.916
 2166SOL    HW2 8694   0.232   0.769   4.011
 2166SOL    HW3 8695   0.161   0.813   3.885
 2166SOL    MW4 8696   0.228   0.773   3.924
 2167SOL     OW 8697   4.489   0.880   3.790
 2167SOL    HW2 8698   4.417   0.842   3.840
 2167SOL    HW3 8699   4.485   0.973   3.811
 2167SOL    MW4 8700   4.479   0.887   3.799
 2168SOL     OW 8701   0.009   1.138   3.887
 2168SOL    HW2 8702  -0.073   1.176   3.855
 2168SOL    HW3 8703   0.078   1.186   3.840
 2168SOL    MW4 8704   0.007   1.150   3.877
 2169SOL     OW 8705   0.221   1.276   3.766
 2169SOL    HW2 8706   0.210   1.363   3.805
 2169SOL    HW3 8707   0.229   1.292   3.672
 2169SOL    MW4 8708   0.220   1.289   3.759
 2170SOL     OW 8709   0.234   1.537   3.877
 2170SOL    HW2 8710   0.231   1.534   3.972
 2170SOL    HW3 8711   0.159   1.591   3.852
 2170SOL    MW4 8712   0.224   1.544   3.886
 2171SOL     OW 8713   0.003   1.693   3.773
 2171SOL    HW2 8714  -0.002   1.780   3.813
 2171SOL    HW3 8715   0.011   1.710   3.679
 2171SOL    MW4 8716   0.003   1.707   3.766
 2172SOL     OW 8717   4.488   1.944   3.869
 2172SOL    HW2 8718   4.488   1.944   3.965
 2172SOL    HW3 8719   4.400   1.973   3.845
 2172SOL    MW4 8720   4.476   1.948   3.878
 2173SOL     OW 8721   0.240   2.054   3.737
 2173SOL    HW2 8722   0.246   2.142   3.773
 2173SOL    HW3 8723   0.171   2.011   3.788
 2173SOL    MW4 8724   0.232   2.060   3.748
 2174SOL     OW 8725   0.230   2.313   3.830
 2174SOL    HW2 8726   0.217   2.321   3.925
 2174SOL    HW3 8727   0.166   2.375   3.793
 2174SOL    MW4 8728   0.220   2.322   3.838
 2175SOL     OW 8729   0.005   2.473   3.739
 2175SOL    HW2 8730  -0.087   2.452   3.758
 2175SOL    HW3 8731   0.015   2.564   3.768
 2175SOL    MW4 8732  -0.006   2.482   3.745
 2176SOL     OW 8733   0.015   2.720   3.859
 2176SOL    HW2 8734   0.016   2.741   3.952
 2176SOL    HW3 8735   0.094   2.760   3.824
 2176SOL    MW4 8736   0.025   2.728   3.866
 2177SOL     OW 8737   0.257   2.859   3.752
 2177SOL    HW2 8738   0.315   2.789   3.783
 2177SOL    HW3 8739   0.240   2.836   3.660
 2177SOL    MW4 8740   0.263   2.846   3.744
 2178SOL     OW 8741   0.250   3.115   3.895
 2178SOL    HW2 8742   0.215   3.091   3.981
 2178SOL    HW3 8743   0.273   3.031   3.855
 2178SOL    MW4 8744   0.249   3.101   3.901
 2179SOL     OW 8745   0.018   3.216   3.787
 2179SOL    HW2 8746   0.104   3.185   3.815
 2179SOL    HW3 8747   0.022   3.215   3.692
 2179SOL    MW4 8748   0.030   3.212   3.779
 2180SOL     OW 8749   4.489   3.482   3.891
 2180SOL    HW2 8750   4.565   3.536   3.868
 2180SOL    HW3 8751   4.513   3.394   3.866
 2180SOL    MW4 8752   4.502   3.478   3.885
 2181SOL     OW 8753   0.236   3.606   3.803
 2181SOL    HW2 8754   0.306   3.560   3.849
 2181SOL    HW3 8755   0.225   3.687   3.853
 2181SOL    MW4 8756   0.244   3.611   3.816
 2182SOL     OW 8757   0.203   3.848   3.928
 2182SOL    HW2 8758   0.222   3.858   4.021
 2182SOL    HW3 8759   0.281   3.881   3.883
 2182SOL    MW4 8760   0.215   3.854   3.934
 2183SOL     OW 8761   0.012   4.006   3.793
 2183SOL    HW2 8762  -0.068   3.955   3.806
 2183SOL    HW3 8763   0.078   3.962   3.848
 2183SOL    MW4 8764   0.010   3.994   3.802
 2184SOL     OW 8765   4.422   4.241   3.904
 2184SOL    HW2 8766   4.490   4.298   3.867
 2184SOL    HW3 8767   4.445   4.153   3.874
 2184SOL    MW4 8768   4.434   4.237   3.895
 2185SOL     OW 8769   0.135   4.372   3.780
 2185SOL    HW2 8770   0.217   4.327   3.801
 2185SOL    HW3 8771   0.154   4.465   3.796
 2185SOL    MW4 8772   0.148   4.378   3.785
 2186SOL     OW 8773   0.626   4.588   3.835
 2186SOL    HW2 8774   0.619   4.503   3.792
 2186SOL    HW3 8775   0.568   4.645   3.785
 2186SOL    MW4 8776   0.617   4.584   3.823
 2187SOL     OW 8777   0.441   0.079   3.729
 2187SOL    HW2 8778   0.433   0.164   3.771
 2187SOL    HW3 8779   0.361   0.032   3.754
 2187SOL    MW4 8780   0.430   0.084   3.738
 2188SOL     OW 8781   0.437   0.346   3.843
 2188SOL    HW2 8782   0.519   0.393   3.828
 2188SOL    HW3 8783   0.369   0.412   3.832
 2188SOL    MW4 8784   0.439   0.361   3.839
 2189SOL     OW 8785   0.670   0.476   3.745
 2189SOL    HW2 8786   0.751   0.433   3.773
 2189SOL    HW3 8787   0.676   0.564   3.781
 2189SOL    MW4 8788   0.682   0.482   3.753
 2190SOL     OW 8789   0.690   0.735   3.852
 2190SOL    HW2 8790   0.765   0.784   3.818
 2190SOL    HW3 8791   0.616   0.765   3.799
 2190SOL    MW4 8792   0.690   0.745   3.841
 2191SOL     OW 8793   0.444   0.866   3.753
 2191SOL    HW2 8794   0.459   0.958   3.775
 2191SOL    HW3 8795   0.386   0.835   3.822
 2191SOL    MW4 8796   0.438   0.874   3.765
 2192SOL     OW 8797   0.469   1.129   3.796
 2192SOL    HW2 8798   0.532   1.201   3.793
 2192SOL    HW3 8799   0.385   1.171   3.777
 2192SOL    MW4 8800   0.466   1.144   3.793
 2193SOL     OW 8801   0.679   1.329   3.739
 2193SOL    HW2 8802   0.760   1.293   3.775
 2193SOL    HW3 8803   0.672   1.290   3.652
 2193SOL    MW4 8804   0.689   1.319   3.732
 2194SOL     OW 8805   0.659   1.579   3.859
 2194SOL    HW2 8806   0.747   1.615   3.848
 2194SOL    HW3 8807   0.657   1.503   3.800
 2194SOL    MW4 8808   0.671   1.574   3.850
 2195SOL     OW 8809   0.424   1.693   3.775
 2195SOL    HW2 8810   0.507   1.648   3.794
 2195SOL    HW3 8811   0.358   1.639   3.819
 2195SOL    MW4 8812   0.426   1.680   3.783
 2196SOL     OW 8813   0.466   1.949   3.886
 2196SOL    HW2 8814   0.452   1.857   3.866
 2196SOL    HW3 8815   0.401   1.996   3.833
 2196SOL    MW4 8816   0.456   1.943   3.877
 2197SOL     OW 8817   0.704   2.056   3.776
 2197SOL    HW2 8818   0.703   2.140   3.821
 2197SOL    HW3 8819   0.622   2.014   3.802
 2197SOL    MW4 8820   0.693   2.061   3.785
 2198SOL     OW 8821   0.676   2.312   3.892
 2198SOL    HW2 8822   0.756   2.331   3.843
 2198SOL    HW3 8823   0.606   2.351   3.840
 2198SOL    MW4 8824   0.677   2.320   3.879
 2199SOL     OW 8825   0.456   2.434   3.736
 2199SOL    HW2 8826   0.380   2.395   3.780
 2199SOL    HW3 8827   0.433   2.434   3.643
 2199SOL    MW4 8828   0.443   2.429   3.729
 2200SOL     OW 8829   0.422   2.671   3.853
 2200SOL    HW2 8830   0.513   2.697   3.846
 2200SOL    HW3 8831   0.418   2.584   3.812
 2200SOL    MW4 8832   0.433   2.663   3.847
 2201SOL     OW 8833   0.661   2.778   3.788
 2201SOL    HW2 8834   0.749   2.740   3.794
 2201SOL    HW3 8835   0.652   2.802   3.696
 2201SOL    MW4 8836   0.672   2.776   3.777
 2202SOL     OW 8837   0.662   3.065   3.856
 2202SOL    HW2 8838   0.649   3.065   3.951
 2202SOL    HW3 8839   0.669   2.973   3.833
 2202SOL    MW4 8840   0.662   3.053   3.866
 2203SOL     OW 8841   0.440   3.259   3.749
 2203SOL    HW2 8842   0.512   3.202   3.774
 2203SOL    HW3 8843   0.364   3.222   3.794
 2203SOL    MW4 8844   0.439   3.247   3.759
 2204SOL     OW 8845   0.467   3.488   3.888
 2204SOL    HW2 8846   0.533   3.536   3.838
 2204SOL    HW3 8847   0.468   3.400   3.851
 2204SOL    MW4 8848   0.476   3.482   3.877
 2205SOL     OW 8849   0.694   3.607   3.760
 2205SOL    HW2 8850   0.673   3.693   3.797
 2205SOL    HW3 8851   0.671   3.614   3.668
 2205SOL    MW4 8852   0.688   3.619   3.753
 2206SOL     OW 8853   0.672   3.862   3.883
 2206SOL    HW2 8854   0.693   3.879   3.975
 2206SOL    HW3 8855   0.736   3.913   3.834
 2206SOL    MW4 8856   0.683   3.871   3.889
 2207SOL     OW 8857   0.413   3.966   3.790
 2207SOL    HW2 8858   0.491   3.936   3.837
 2207SOL    HW3 8859   0.438   3.966   3.698
 2207SOL    MW4 8860   0.426   3.962   3.784
 2208SOL     OW 8861   0.357   4.253   3.851
 2208SOL    HW2 8862   0.440   4.282   3.812
 2208SOL    HW3 8863   0.350   4.161   3.828
 2208SOL    MW4 8864   0.367   4.245   3.842
 2209SOL     OW 8865   0.594   4.337   3.739
 2209SOL    HW2 8866   0.673   4.295   3.772
 2209SOL    HW3 8867   0.614   4.357   3.647
 2209SOL    MW4 8868   0.607   4.334   3.731
 2210SOL     OW 8869   1.102   4.652   3.877
 2210SOL    HW2 8870   1.185   4.694   3.854
 2210SOL    HW3 8871   1.109   4.563   3.842
 2210SOL    MW4 8872   1.114   4.646   3.870
 2211SOL     OW 8873   0.857   0.074   3.775
 2211SOL    HW2 8874   0.940   0.046   3.813
 2211SOL    HW3 8875   0.791   0.021   3.820
 2211SOL    MW4 8876   0.859   0.063   3.786
 2212SOL     OW 8877   0.874   0.347   3.858
 2212SOL    HW2 8878   0.884   0.342   3.953
 2212SOL    HW3 8879   0.862   0.257   3.830
 2212SOL    MW4 8880   0.874   0.335   3.867
 2213SOL     OW 8881   1.089   0.488   3.754
 2213SOL    HW2 8882   1.176   0.468   3.788
 2213SOL    HW3 8883   1.029   0.438   3.810
 2213SOL    MW4 8884   1.092   0.479   3.766
 2214SOL     OW 8885   1.133   0.752   3.822
 2214SOL    HW2 8886   1.151   0.753   3.916
 2214SOL    HW3 8887   1.132   0.659   3.798
 2214SOL    MW4 8888   1.135   0.740   3.831
 2215SOL     OW 8889   0.912   0.912   3.785
 2215SOL    HW2 8890   0.990   0.857   3.794
 2215SOL    HW3 8891   0.895   0.914   3.691
 2215SOL    MW4 8892   0.920   0.905   3.774
 2216SOL     OW 8893   0.901   1.185   3.848
 2216SOL    HW2 8894   0.904   1.188   3.944
 2216SOL    HW3 8895   0.918   1.093   3.827
 2216SOL    MW4 8896   0.903   1.173   3.858
 2217SOL     OW 8897   1.155   1.262   3.764
 2217SOL    HW2 8898   1.149   1.354   3.789
 2217SOL    HW3 8899   1.074   1.223   3.797
 2217SOL    MW4 8900   1.143   1.269   3.772
 2218SOL     OW 8901   1.138   1.535   3.839
 2218SOL    HW2 8902   1.143   1.523   3.934
 2218SOL    HW3 8903   1.224   1.568   3.814
 2218SOL    MW4 8904   1.150   1.537   3.848
 2219SOL     OW 8905   0.906   1.685   3.763
 2219SOL    HW2 8906   0.984   1.637   3.790
 2219SOL    HW3 8907   0.898   1.668   3.669
 2219SOL    MW4 8908   0.915   1.676   3.754
 2220SOL     OW 8909   0.942   1.926   3.902
 2220SOL    HW2 8910   0.930   1.841   3.860
 2220SOL    HW3 8911   0.864   1.977   3.877
 2220SOL    MW4 8912   0.930   1.922   3.893
 2221SOL     OW 8913   1.184   2.056   3.855
 2221SOL    HW2 8914   1.104   2.005   3.861
 2221SOL    HW3 8915   1.194   2.075   3.761
 2221SOL    MW4 8916   1.175   2.052   3.843
 2222SOL     OW 8917   1.141   2.320   3.918
 2222SOL    HW2 8918   1.106   2.310   4.007
 2222SOL    HW3 8919   1.160   2.231   3.890
 2222SOL    MW4 8920   1.139   2.307   3.926
 2223SOL     OW 8921   0.921   2.379   3.770
 2223SOL    HW2 8922   0.909   2.468   3.802
 2223SOL    HW3 8923   0.997   2.346   3.818
 2223SOL    MW4 8924   0.929   2.386   3.781
 2224SOL     OW 8925   0.902   2.644   3.830
 2224SOL    HW2 8926   0.913   2.634   3.924
 2224SOL    HW3 8927   0.960   2.717   3.807
 2224SOL    MW4 8928   0.911   2.653   3.839
 2225SOL     OW 8929   1.105   2.827   3.802
 2225SOL    HW2 8930   1.171   2.789   3.860
 2225SOL    HW3 8931   1.121   2.922   3.807
 2225SOL    MW4 8932   1.116   2.835   3.810
 2226SOL     OW 8933   1.147   3.078   3.914
 2226SOL    HW2 8934   1.218   3.129   3.875
 2226SOL    HW3 8935   1.068   3.114   3.874
 2226SOL    MW4 8936   1.146   3.089   3.903
 2227SOL     OW 8937   0.920   3.170   3.813
 2227SOL    HW2 8938   0.837   3.129   3.835
 2227SOL    HW3 8939   0.916   3.183   3.718
 2227SOL    MW4 8940   0.909   3.167   3.803
 2228SOL     OW 8941   0.907   3.451   3.877
 2228SOL    HW2 8942   0.894   3.358   3.856
 2228SOL    HW3 8943   0.839   3.496   3.826
 2228SOL    MW4 8944   0.896   3.445   3.868
 2229SOL     OW 8945   1.139   3.626   3.773
 2229SOL    HW2 8946   1.120   3.720   3.782
 2229SOL    HW3 8947   1.068   3.583   3.821
 2229SOL    MW4 8948   1.127   3.633   3.781
 2230SOL     OW 8949   1.084   3.899   3.839
 2230SOL    HW2 8950   1.104   3.886   3.932
 2230SOL    HW3 8951   1.164   3.937   3.803
 2230SOL    MW4 8952   1.097   3.902   3.846
 2231SOL     OW 8953   0.840   4.025   3.741
 2231SOL    HW2 8954   0.925   3.987   3.762
 2231SOL    HW3 8955   0.840   4.031   3.645
 2231SOL    MW4 8956   0.851   4.021   3.731
 2232SOL     OW 8957   0.851   4.269   3.868
 2232SOL    HW2 8958   0.871   4.249   3.959
 2232SOL    HW3 8959   0.852   4.183   3.824
 2232SOL    MW4 8960   0.854   4.255   3.874
 2233SOL     OW 8961   1.083   4.396   3.779
 2233SOL    HW2 8962   1.005   4.348   3.806
 2233SOL    HW3 8963   1.078   4.397   3.683
 2233SOL    MW4 8964   1.072   4.390   3.770
 2234SOL     OW 8965   1.561   4.656   3.798
 2234SOL    HW2 8966   1.580   4.660   3.892
 2234SOL    HW3 8967   1.559   4.562   3.778
 2234SOL    MW4 8968   1.564   4.644   3.808
 2235SOL     OW 8969   1.324   0.114   3.775
 2235SOL    HW2 8970   1.326   0.204   3.806
 2235SOL    HW3 8971   1.413   0.082   3.790
 2235SOL    MW4 8972   1.336   0.121   3.781
 2236SOL     OW 8973   1.348   0.393   3.831
 2236SOL    HW2 8974   1.347   0.389   3.926
 2236SOL    HW3 8975   1.427   0.443   3.809
 2236SOL    MW4 8976   1.358   0.399   3.840
 2237SOL     OW 8977   1.571   0.528   3.752
 2237SOL    HW2 8978   1.648   0.474   3.771
 2237SOL    HW3 8979   1.580   0.604   3.808
 2237SOL    MW4 8980   1.582   0.531   3.762
 2238SOL     OW 8981   1.590   0.769   3.872
 2238SOL    HW2 8982   1.664   0.808   3.827
 2238SOL    HW3 8983   1.513   0.804   3.827
 2238SOL    MW4 8984   1.589   0.779   3.860
 2239SOL     OW 8985   1.372   0.889   3.746
 2239SOL    HW2 8986   1.361   0.975   3.788
 2239SOL    HW3 8987   1.291   0.842   3.767
 2239SOL    MW4 8988   1.360   0.894   3.754
 2240SOL     OW 8989   1.389   1.139   3.848
 2240SOL    HW2 8990   1.474   1.179   3.828
 2240SOL    HW3 8991   1.325   1.198   3.811
 2240SOL    MW4 8992   1.392   1.152   3.840
 2241SOL     OW 8993   1.616   1.305   3.776
 2241SOL    HW2 8994   1.676   1.257   3.833
 2241SOL    HW3 8995   1.616   1.394   3.811
 2241SOL    MW4 8996   1.624   1.310   3.788
 2242SOL     OW 8997   1.598   1.576   3.864
 2242SOL    HW2 8998   1.598   1.565   3.959
 2242SOL    HW3 8999   1.672   1.634   3.847
 2242SOL    MW4 9000   1.608   1.582   3.874
 2243SOL     OW 9001   1.371   1.667   3.758
 2243SOL    HW2 9002   1.360   1.746   3.812
 2243SOL    HW3 9003   1.449   1.625   3.794
 2243SOL    MW4 9004   1.380   1.672   3.770
 2244SOL     OW 9005   1.393   1.899   3.926
 2244SOL    HW2 9006   1.391   1.893   4.022
 2244SOL    HW3 9007   1.327   1.965   3.905
 2244SOL    MW4 9008   1.384   1.907   3.936
 2245SOL     OW 9009   1.584   2.070   3.811
 2245SOL    HW2 9010   1.521   2.020   3.863
 2245SOL    HW3 9011   1.556   2.057   3.720
 2245SOL    MW4 9012   1.572   2.061   3.805
 2246SOL     OW 9013   1.574   2.337   3.875
 2246SOL    HW2 9014   1.654   2.380   3.844
 2246SOL    HW3 9015   1.584   2.246   3.849
 2246SOL    MW4 9016   1.586   2.331   3.867
 2247SOL     OW 9017   1.346   2.472   3.789
 2247SOL    HW2 9018   1.422   2.424   3.822
 2247SOL    HW3 9019   1.271   2.431   3.832
 2247SOL    MW4 9020   1.346   2.461   3.799
 2248SOL     OW 9021   1.319   2.704   3.952
 2248SOL    HW2 9022   1.323   2.672   4.042
 2248SOL    HW3 9023   1.340   2.628   3.898
 2248SOL    MW4 9024   1.322   2.690   3.957
 2249SOL     OW 9025   1.527   2.839   3.789
 2249SOL    HW2 9026   1.451   2.793   3.824
 2249SOL    HW3 9027   1.507   2.853   3.697
 2249SOL    MW4 9028   1.515   2.835   3.782
 2250SOL     OW 9029   1.573   3.082   3.916
 2250SOL    HW2 9030   1.543   3.096   4.006
 2250SOL    HW3 9031   1.578   2.987   3.906
 2250SOL    MW4 9032   1.569   3.071   3.926
 2251SOL     OW 9033   1.347   3.186   3.752
 2251SOL    HW2 9034   1.346   3.277   3.780
 2251SOL    HW3 9035   1.412   3.144   3.808
 2251SOL    MW4 9036   1.356   3.192   3.763
 2252SOL     OW 9037   1.338   3.442   3.847
 2252SOL    HW2 9038   1.427   3.477   3.840
 2252SOL    HW3 9039   1.282   3.510   3.810
 2252SOL    MW4 9040   1.342   3.456   3.841
 2253SOL     OW 9041   1.582   3.540   3.751
 2253SOL    HW2 9042   1.658   3.504   3.797
 2253SOL    HW3 9043   1.577   3.631   3.780
 2253SOL    MW4 9044   1.591   3.547   3.761
 2254SOL     OW 9045   1.562   3.826   3.813
 2254SOL    HW2 9046   1.547   3.816   3.907
 2254SOL    HW3 9047   1.480   3.863   3.780
 2254SOL    MW4 9048   1.549   3.829   3.821
 2255SOL     OW 9049   1.331   3.985   3.742
 2255SOL    HW2 9050   1.324   4.076   3.770
 2255SOL    HW3 9051   1.324   3.989   3.647
 2255SOL    MW4 9052   1.329   3.997   3.733
 2256SOL     OW 9053   1.312   4.244   3.832
 2256SOL    HW2 9054   1.388   4.298   3.810
 2256SOL    HW3 9055   1.237   4.301   3.816
 2256SOL    MW4 9056   1.312   4.259   3.827
 2257SOL     OW 9057   1.536   4.381   3.753
 2257SOL    HW2 9058   1.615   4.344   3.792
 2257SOL    HW3 9059   1.541   4.356   3.661
 2257SOL    MW4 9060   1.547   4.373   3.746
 2258SOL     OW 9061   2.009   4.632   3.831
 2258SOL    HW2 9062   2.081   4.657   3.772
 2258SOL    HW3 9063   2.011   4.537   3.833
 2258SOL    MW4 9064   2.019   4.623   3.823
 2259SOL     OW 9065   1.798   0.089   3.714
 2259SOL    HW2 9066   1.861   0.052   3.776
 2259SOL    HW3 9067   1.714   0.050   3.739
 2259SOL    MW4 9068   1.795   0.079   3.725
 2260SOL     OW 9069   1.785   0.344   3.816
 2260SOL    HW2 9070   1.815   0.337   3.906
 2260SOL    HW3 9071   1.778   0.254   3.785
 2260SOL    MW4 9072   1.788   0.331   3.824
 2261SOL     OW 9073   2.021   0.464   3.738
 2261SOL    HW2 9074   1.929   0.440   3.753
 2261SOL    HW3 9075   2.030   0.463   3.643
 2261SOL    MW4 9076   2.010   0.461   3.727
 2262SOL     OW 9077   2.023   0.719   3.830
 2262SOL    HW2 9078   2.028   0.703   3.924
 2262SOL    HW3 9079   2.028   0.632   3.790
 2262SOL    MW4 9080   2.024   0.706   3.837
 2263SOL     OW 9081   1.854   0.916   3.767
 2263SOL    HW2 9082   1.919   0.854   3.800
 2263SOL    HW3 9083   1.842   0.892   3.675
 2263SOL    MW4 9084   1.861   0.905   3.759
 2264SOL     OW 9085   1.830   1.167   3.893
 2264SOL    HW2 9086   1.858   1.154   3.984
 2264SOL    HW3 9087   1.830   1.079   3.855
 2264SOL    MW4 9088   1.834   1.154   3.900
 2265SOL     OW 9089   2.035   1.288   3.769
 2265SOL    HW2 9090   2.112   1.236   3.792
 2265SOL    HW3 9091   1.966   1.253   3.825
 2265SOL    MW4 9092   2.036   1.276   3.779
 2266SOL     OW 9093   2.060   1.548   3.900
 2266SOL    HW2 9094   1.985   1.587   3.855
 2266SOL    HW3 9095   2.068   1.461   3.861
 2266SOL    MW4 9096   2.051   1.542   3.889
 2267SOL     OW 9097   1.863   1.679   3.768
 2267SOL    HW2 9098   1.874   1.766   3.806
 2267SOL    HW3 9099   1.857   1.694   3.673
 2267SOL    MW4 9100   1.864   1.692   3.760
 2268SOL     OW 9101   1.831   1.923   3.884
 2268SOL    HW2 9102   1.829   1.939   3.978
 2268SOL    HW3 9103   1.759   1.975   3.849
 2268SOL    MW4 9104   1.821   1.932   3.892
 2269SOL     OW 9105   2.028   2.104   3.783
 2269SOL    HW2 9106   1.945   2.071   3.819
 2269SOL    HW3 9107   2.018   2.093   3.689
 2269SOL    MW4 9108   2.016   2.098   3.775
 2270SOL     OW 9109   2.052   2.361   3.865
 2270SOL    HW2 9110   1.974   2.402   3.826
 2270SOL    HW3 9111   2.049   2.271   3.834
 2270SOL    MW4 9112   2.041   2.355   3.855
 2271SOL     OW 9113   1.812   2.452   3.775
 2271SOL    HW2 9114   1.802   2.545   3.794
 2271SOL    HW3 9115   1.815   2.447   3.679
 2271SOL    MW4 9116   1.811   2.464   3.764
 2272SOL     OW 9117   1.776   2.727   3.841
 2272SOL    HW2 9118   1.776   2.759   3.931
 2272SOL    HW3 9119   1.689   2.751   3.807
 2272SOL    MW4 9120   1.765   2.734   3.848
 2273SOL     OW 9121   2.006   2.821   3.693
 2273SOL    HW2 9122   2.085   2.803   3.744
 2273SOL    HW3 9123   1.937   2.772   3.737
 2273SOL    MW4 9124   2.007   2.812   3.705
 2274SOL     OW 9125   1.979   3.074   3.797
 2274SOL    HW2 9126   1.997   2.990   3.755
 2274SOL    HW3 9127   2.053   3.130   3.771
 2274SOL    MW4 9128   1.991   3.070   3.788
 2275SOL     OW 9129   1.751   3.211   3.735
 2275SOL    HW2 9130   1.829   3.159   3.755
 2275SOL    HW3 9131   1.685   3.182   3.798
 2275SOL    MW4 9132   1.753   3.200   3.746
 2276SOL     OW 9133   1.815   3.439   3.852
 2276SOL    HW2 9134   1.883   3.483   3.801
 2276SOL    HW3 9135   1.802   3.355   3.808
 2276SOL    MW4 9136   1.823   3.434   3.840
 2277SOL     OW 9137   1.982   3.623   3.715
 2277SOL    HW2 9138   2.067   3.594   3.749
 2277SOL    HW3 9139   1.998   3.644   3.624
 2277SOL    MW4 9140   1.995   3.622   3.708
 2278SOL     OW 9141   1.974   3.865   3.833
 2278SOL    HW2 9142   2.058   3.906   3.810
 2278SOL    HW3 9143   1.978   3.779   3.791
 2278SOL    MW4 9144   1.986   3.859   3.824
 2279SOL     OW 9145   1.767   3.998   3.712
 2279SOL    HW2 9146   1.846   3.957   3.747
 2279SOL    HW3 9147   1.695   3.947   3.747
 2279SOL    MW4 9148   1.768   3.986   3.721
 2280SOL     OW 9149   1.769   4.246   3.828
 2280SOL    HW2 9150   1.853   4.286   3.806
 2280SOL    HW3 9151   1.767   4.164   3.778
 2280SOL    MW4 9152   1.780   4.240   3.818
 2281SOL     OW 9153   2.024   4.348   3.774
 2281SOL    HW2 9154   2.098   4.296   3.805
 2281SOL    HW3 9155   2.035   4.351   3.679
 2281SOL    MW4 9156   2.035   4.342   3.765
 2282SOL     OW 9157   2.421   0.001   3.847
 2282SOL    HW2 9158   2.432  -0.023   3.939
 2282SOL    HW3 9159   2.506   0.036   3.820
 2282SOL    MW4 9160   2.434   0.002   3.855
 2283SOL     OW 9161   2.209   0.090   3.705
 2283SOL    HW2 9162   2.284   0.057   3.754
 2283SOL    HW3 9163   2.236   0.084   3.613
 2283SOL    MW4 9164   2.223   0.085   3.699
 2284SOL     OW 9165   2.243   0.326   3.843
 2284SOL    HW2 9166   2.245   0.239   3.803
 2284SOL    HW3 9167   2.161   0.365   3.812
 2284SOL    MW4 9168   2.232   0.320   3.834
 2285SOL     OW 9169   2.466   0.483   3.766
 2285SOL    HW2 9170   2.392   0.428   3.791
 2285SOL    HW3 9171   2.469   0.477   3.670
 2285SOL    MW4 9172   2.457   0.475   3.756
 2286SOL     OW 9173   2.460   0.743   3.837
 2286SOL    HW2 9174   2.386   0.789   3.797
 2286SOL    HW3 9175   2.450   0.652   3.809
 2286SOL    MW4 9176   2.449   0.737   3.828
 2287SOL     OW 9177   2.226   0.876   3.737
 2287SOL    HW2 9178   2.154   0.821   3.768
 2287SOL    HW3 9179   2.221   0.869   3.642
 2287SOL    MW4 9180   2.216   0.868   3.729
 2288SOL     OW 9181   2.253   1.132   3.838
 2288SOL    HW2 9182   2.264   1.142   3.933
 2288SOL    HW3 9183   2.215   1.045   3.828
 2288SOL    MW4 9184   2.250   1.122   3.849
 2289SOL     OW 9185   2.482   1.248   3.739
 2289SOL    HW2 9186   2.471   1.335   3.778
 2289SOL    HW3 9187   2.409   1.197   3.775
 2289SOL    MW4 9188   2.471   1.253   3.749
 2290SOL     OW 9189   2.435   1.506   3.860
 2290SOL    HW2 9190   2.509   1.564   3.842
 2290SOL    HW3 9191   2.359   1.554   3.827
 2290SOL    MW4 9192   2.435   1.520   3.853
 2291SOL     OW 9193   2.245   1.668   3.742
 2291SOL    HW2 9194   2.252   1.761   3.764
 2291SOL    HW3 9195   2.183   1.633   3.806
 2291SOL    MW4 9196   2.237   1.676   3.753
 2292SOL     OW 9197   2.232   1.943   3.840
 2292SOL    HW2 9198   2.254   1.949   3.933
 2292SOL    HW3 9199   2.155   1.998   3.830
 2292SOL    MW4 9200   2.225   1.951   3.851
 2293SOL     OW 9201   2.464   2.082   3.752
 2293SOL    HW2 9202   2.456   2.158   3.810
 2293SOL    HW3 9203   2.392   2.025   3.778
 2293SOL    MW4 9204   2.454   2.085   3.763
 2294SOL     OW 9205   2.447   2.323   3.881
 2294SOL    HW2 9206   2.534   2.344   3.849
 2294SOL    HW3 9207   2.389   2.384   3.836
 2294SOL    MW4 9208   2.451   2.334   3.871
 2295SOL     OW 9209   2.275   2.512   3.771
 2295SOL    HW2 9210   2.198   2.465   3.804
 2295SOL    HW3 9211   2.262   2.514   3.676
 2295SOL    MW4 9212   2.263   2.506   3.763
 2296SOL     OW 9213   2.235   2.779   3.834
 2296SOL    HW2 9214   2.230   2.796   3.928
 2296SOL    HW3 9215   2.254   2.686   3.828
 2296SOL    MW4 9216   2.237   2.769   3.846
 2297SOL     OW 9217   2.491   2.801   3.778
 2297SOL    HW2 9218   2.400   2.809   3.808
 2297SOL    HW3 9219   2.485   2.802   3.682
 2297SOL    MW4 9220   2.478   2.802   3.769
 2298SOL     OW 9221   2.459   3.068   3.792
 2298SOL    HW2 9222   2.444   3.070   3.887
 2298SOL    HW3 9223   2.487   2.979   3.774
 2298SOL    MW4 9224   2.461   3.057   3.802
 2299SOL     OW 9225   2.201   3.226   3.711
 2299SOL    HW2 9226   2.207   3.302   3.769
 2299SOL    HW3 9227   2.276   3.172   3.735
 2299SOL    MW4 9228   2.212   3.229   3.722
 2300SOL     OW 9229   2.209   3.496   3.852
 2300SOL    HW2 9230   2.216   3.496   3.947
 2300SOL    HW3 9231   2.292   3.534   3.822
 2300SOL    MW4 9232   2.221   3.501   3.860
 2301SOL     OW 9233   2.428   3.606   3.734
 2301SOL    HW2 9234   2.500   3.551   3.766
 2301SOL    HW3 9235   2.434   3.601   3.639
 2301SOL    MW4 9236   2.439   3.598   3.726
 2302SOL     OW 9237   2.464   3.846   3.891
 2302SOL    HW2 9238   2.535   3.887   3.840
 2302SOL    HW3 9239   2.449   3.762   3.847
 2302SOL    MW4 9240   2.472   3.841   3.878
 2303SOL     OW 9241   2.235   3.952   3.747
 2303SOL    HW2 9242   2.321   3.922   3.778
 2303SOL    HW3 9243   2.244   3.956   3.652
 2303SOL    MW4 9244   2.248   3.948   3.739
 2304SOL     OW 9245   2.244   4.213   3.868
 2304SOL    HW2 9246   2.247   4.193   3.961
 2304SOL    HW3 9247   2.259   4.129   3.824
 2304SOL    MW4 9248   2.246   4.199   3.874
 2305SOL     OW 9249   2.409   4.396   3.749
 2305SOL    HW2 9250   2.334   4.346   3.782
 2305SOL    HW3 9251   2.399   4.482   3.788
 2305SOL    MW4 9252   2.397   4.400   3.759
 2306SOL     OW 9253   2.912   4.646   3.859
 2306SOL    HW2 9254   2.924   4.627   3.952
 2306SOL    HW3 9255   2.991   4.694   3.834
 2306SOL    MW4 9256   2.924   4.650   3.868
 2307SOL     OW 9257   2.682   0.139   3.777
 2307SOL    HW2 9258   2.750   0.079   3.808
 2307SOL    HW3 9259   2.682   0.127   3.682
 2307SOL    MW4 9260   2.691   0.129   3.768
 2308SOL     OW 9261   2.723   0.394   3.866
 2308SOL    HW2 9262   2.714   0.303   3.836
 2308SOL    HW3 9263   2.653   0.441   3.821
 2308SOL    MW4 9264   2.713   0.388   3.856
 2309SOL     OW 9265   2.935   0.508   3.739
 2309SOL    HW2 9266   3.021   0.473   3.761
 2309SOL    HW3 9267   2.874   0.460   3.795
 2309SOL    MW4 9268   2.938   0.497   3.749
 2310SOL     OW 9269   2.968   0.751   3.861
 2310SOL    HW2 9270   3.028   0.790   3.797
 2310SOL    HW3 9271   2.941   0.669   3.820
 2310SOL    MW4 9272   2.972   0.746   3.847
 2311SOL     OW 9273   2.684   0.867   3.743
 2311SOL    HW2 9274   2.754   0.830   3.796
 2311SOL    HW3 9275   2.605   0.820   3.770
 2311SOL    MW4 9276   2.683   0.856   3.754
 2312SOL     OW 9277   2.707   1.110   3.881
 2312SOL    HW2 9278   2.700   1.031   3.828
 2312SOL    HW3 9279   2.632   1.163   3.856
 2312SOL    MW4 9280   2.696   1.107   3.871
 2313SOL     OW 9281   2.880   1.297   3.747
 2313SOL    HW2 9282   2.860   1.381   3.789
 2313SOL    HW3 9283   2.833   1.232   3.800
 2313SOL    MW4 9284   2.871   1.299   3.760
 2314SOL     OW 9285   2.861   1.544   3.844
 2314SOL    HW2 9286   2.857   1.551   3.940
 2314SOL    HW3 9287   2.940   1.594   3.821
 2314SOL    MW4 9288   2.871   1.552   3.854
 2315SOL     OW 9289   2.624   1.677   3.763
 2315SOL    HW2 9290   2.710   1.644   3.789
 2315SOL    HW3 9291   2.631   1.691   3.669
 2315SOL    MW4 9292   2.637   1.674   3.754
 2316SOL     OW 9293   2.649   1.938   3.872
 2316SOL    HW2 9294   2.627   1.849   3.844
 2316SOL    HW3 9295   2.587   1.994   3.825
 2316SOL    MW4 9296   2.638   1.934   3.862
 2317SOL     OW 9297   2.874   2.034   3.752
 2317SOL    HW2 9298   2.859   2.125   3.779
 2317SOL    HW3 9299   2.797   1.987   3.784
 2317SOL    MW4 9300   2.862   2.040   3.760
 2318SOL     OW 9301   2.912   2.284   3.852
 2318SOL    HW2 9302   2.909   2.298   3.947
 2318SOL    HW3 9303   3.001   2.310   3.827
 2318SOL    MW4 9304   2.923   2.290   3.861
 2319SOL     OW 9305   2.681   2.405   3.774
 2319SOL    HW2 9306   2.698   2.499   3.788
 2319SOL    HW3 9307   2.768   2.365   3.775
 2319SOL    MW4 9308   2.695   2.412   3.776
 2320SOL     OW 9309   2.705   2.658   3.863
 2320SOL    HW2 9310   2.699   2.641   3.957
 2320SOL    HW3 9311   2.633   2.718   3.844
 2320SOL    MW4 9312   2.695   2.664   3.873
 2321SOL     OW 9313   2.898   2.779   3.730
 2321SOL    HW2 9314   2.891   2.867   3.767
 2321SOL    HW3 9315   2.828   2.729   3.773
 2321SOL    MW4 9316   2.888   2.784   3.741
 2322SOL     OW 9317   2.881   3.057   3.831
 2322SOL    HW2 9318   2.967   3.093   3.811
 2322SOL    HW3 9319   2.820   3.113   3.783
 2322SOL    MW4 9320   2.884   3.069   3.822
 2323SOL     OW 9321   2.693   3.186   3.689
 2323SOL    HW2 9322   2.706   3.269   3.736
 2323SOL    HW3 9323   2.611   3.152   3.724
 2323SOL    MW4 9324   2.684   3.192   3.700
 2324SOL     OW 9325   2.664   3.466   3.826
 2324SOL    HW2 9326   2.667   3.457   3.921
 2324SOL    HW3 9327   2.733   3.528   3.805
 2324SOL    MW4 9328   2.673   3.473   3.835
 2325SOL     OW 9329   2.878   3.631   3.761
 2325SOL    HW2 9330   2.950   3.569   3.771
 2325SOL    HW3 9331   2.871   3.644   3.667
 2325SOL    MW4 9332   2.887   3.624   3.750
 2326SOL     OW 9333   2.913   3.902   3.821
 2326SOL    HW2 9334   2.922   3.904   3.916
 2326SOL    HW3 9335   2.901   3.809   3.800
 2326SOL    MW4 9336   2.912   3.890   3.831
 2327SOL     OW 9337   2.654   4.004   3.756
 2327SOL    HW2 9338   2.644   4.091   3.794
 2327SOL    HW3 9339   2.741   3.976   3.783
 2327SOL    MW4 9340   2.664   4.012   3.765
 2328SOL     OW 9341   2.638   4.280   3.863
 2328SOL    HW2 9342   2.713   4.327   3.827
 2328SOL    HW3 9343   2.562   4.326   3.828
 2328SOL    MW4 9344   2.638   4.292   3.854
 2329SOL     OW 9345   2.863   4.401   3.763
 2329SOL    HW2 9346   2.948   4.361   3.783
 2329SOL    HW3 9347   2.872   4.491   3.794
 2329SOL    MW4 9348   2.876   4.408   3.770
 2330SOL     OW 9349   3.355   0.025   3.862
 2330SOL    HW2 9350   3.358  -0.002   3.954
 2330SOL    HW3 9351   3.437   0.072   3.848
 2330SOL    MW4 9352   3.366   0.028   3.872
 2331SOL     OW 9353   3.133   0.097   3.731
 2331SOL    HW2 9354   3.216   0.070   3.771
 2331SOL    HW3 9355   3.153   0.111   3.639
 2331SOL    MW4 9356   3.146   0.095   3.724
 2332SOL     OW 9357   3.156   0.353   3.849
 2332SOL    HW2 9358   3.151   0.351   3.944
 2332SOL    HW3 9359   3.132   0.264   3.822
 2332SOL    MW4 9360   3.152   0.341   3.858
 2333SOL     OW 9361   3.378   0.507   3.788
 2333SOL    HW2 9362   3.442   0.457   3.840
 2333SOL    HW3 9363   3.294   0.465   3.806
 2333SOL    MW4 9364   3.376   0.495   3.797
 2334SOL     OW 9365   3.363   0.771   3.890
 2334SOL    HW2 9366   3.357   0.765   3.985
 2334SOL    HW3 9367   3.364   0.680   3.860
 2334SOL    MW4 9368   3.362   0.758   3.899
 2335SOL     OW 9369   3.173   0.895   3.741
 2335SOL    HW2 9370   3.248   0.851   3.782
 2335SOL    HW3 9371   3.173   0.863   3.651
 2335SOL    MW4 9372   3.183   0.885   3.734
 2336SOL     OW 9373   3.105   1.141   3.839
 2336SOL    HW2 9374   3.126   1.065   3.785
 2336SOL    HW3 9375   3.023   1.174   3.804
 2336SOL    MW4 9376   3.097   1.135   3.827
 2337SOL     OW 9377   3.339   1.266   3.760
 2337SOL    HW2 9378   3.254   1.230   3.788
 2337SOL    HW3 9379   3.330   1.276   3.666
 2337SOL    MW4 9380   3.326   1.263   3.751
 2338SOL     OW 9381   3.333   1.527   3.869
 2338SOL    HW2 9382   3.251   1.569   3.843
 2338SOL    HW3 9383   3.330   1.440   3.830
 2338SOL    MW4 9384   3.322   1.521   3.861
 2339SOL     OW 9385   3.096   1.681   3.782
 2339SOL    HW2 9386   3.115   1.774   3.793
 2339SOL    HW3 9387   3.081   1.671   3.688
 2339SOL    MW4 9388   3.097   1.692   3.771
 2340SOL     OW 9389   3.130   1.955   3.834
 2340SOL    HW2 9390   3.098   1.950   3.924
 2340SOL    HW3 9391   3.058   1.994   3.785
 2340SOL    MW4 9392   3.116   1.960   3.840
 2341SOL     OW 9393   3.363   2.073   3.768
 2341SOL    HW2 9394   3.274   2.046   3.791
 2341SOL    HW3 9395   3.369   2.057   3.674
 2341SOL    MW4 9396   3.352   2.067   3.759
 2342SOL     OW 9397   3.381   2.329   3.886
 2342SOL    HW2 9398   3.303   2.362   3.842
 2342SOL    HW3 9399   3.385   2.236   3.861
 2342SOL    MW4 9400   3.371   2.321   3.877
 2343SOL     OW 9401   3.155   2.412   3.742
 2343SOL    HW2 9402   3.129   2.495   3.781
 2343SOL    HW3 9403   3.163   2.430   3.648
 2343SOL    MW4 9404   3.153   2.425   3.735
 2344SOL     OW 9405   3.148   2.671   3.831
 2344SOL    HW2 9406   3.145   2.695   3.924
 2344SOL    HW3 9407   3.068   2.708   3.794
 2344SOL    MW4 9408   3.137   2.679   3.838
 2345SOL     OW 9409   3.373   2.801   3.753
 2345SOL    HW2 9410   3.301   2.744   3.779
 2345SOL    HW3 9411   3.357   2.819   3.660
 2345SOL    MW4 9412   3.362   2.796   3.744
 2346SOL     OW 9413   3.341   3.068   3.845
 2346SOL    HW2 9414   3.426   3.109   3.832
 2346SOL    HW3 9415   3.354   2.977   3.818
 2346SOL    MW4 9416   3.354   3.061   3.840
 2347SOL     OW 9417   3.124   3.204   3.775
 2347SOL    HW2 9418   3.205   3.157   3.794
 2347SOL    HW3 9419   3.126   3.216   3.680
 2347SOL    MW4 9420   3.135   3.199   3.765
 2348SOL     OW 9421   3.108   3.483   3.774
 2348SOL    HW2 9422   3.194   3.525   3.773
 2348SOL    HW3 9423   3.125   3.391   3.793
 2348SOL    MW4 9424   3.121   3.476   3.777
 2349SOL     OW 9425   3.369   3.605   3.753
 2349SOL    HW2 9426   3.381   3.695   3.785
 2349SOL    HW3 9427   3.375   3.613   3.658
 2349SOL    MW4 9428   3.372   3.618   3.745
 2350SOL     OW 9429   3.387   3.869   3.832
 2350SOL    HW2 9430   3.463   3.918   3.798
 2350SOL    HW3 9431   3.313   3.928   3.819
 2350SOL    MW4 9432   3.388   3.883   3.825
 2351SOL     OW 9433   3.157   4.011   3.758
 2351SOL    HW2 9434   3.146   4.101   3.790
 2351SOL    HW3 9435   3.078   3.966   3.787
 2351SOL    MW4 9436   3.145   4.017   3.766
 2352SOL     OW 9437   3.150   4.288   3.843
 2352SOL    HW2 9438   3.167   4.279   3.937
 2352SOL    HW3 9439   3.225   4.338   3.810
 2352SOL    MW4 9440   3.162   4.293   3.851
 2353SOL     OW 9441   3.378   4.419   3.762
 2353SOL    HW2 9442   3.452   4.378   3.806
 2353SOL    HW3 9443   3.381   4.511   3.790
 2353SOL    MW4 9444   3.388   4.426   3.771
 2354SOL     OW 9445   3.783   4.652   3.822
 2354SOL    HW2 9446   3.871   4.688   3.814
 2354SOL    HW3 9447   3.792   4.560   3.795
 2354SOL    MW4 9448   3.796   4.644   3.817
 2355SOL     OW 9449   3.578   0.160   3.782
 2355SOL    HW2 9450   3.642   0.089   3.783
 2355SOL    HW3 9451   3.564   0.179   3.690
 2355SOL    MW4 9452   3.585   0.153   3.770
 2356SOL     OW 9453   3.599   0.404   3.930
 2356SOL    HW2 9454   3.668   0.445   3.879
 2356SOL    HW3 9455   3.597   0.313   3.900
 2356SOL    MW4 9456   3.608   0.398   3.919
 2357SOL     OW 9457   3.802   0.536   3.792
 2357SOL    HW2 9458   3.885   0.500   3.821
 2357SOL    HW3 9459   3.789   0.615   3.844
 2357SOL    MW4 9460   3.811   0.542   3.802
 2358SOL     OW 9461   3.782   0.774   3.926
 2358SOL    HW2 9462   3.851   0.833   3.894
 2358SOL    HW3 9463   3.702   0.808   3.885
 2358SOL    MW4 9464   3.781   0.787   3.916
 2359SOL     OW 9465   3.574   0.901   3.770
 2359SOL    HW2 9466   3.571   0.980   3.824
 2359SOL    HW3 9467   3.502   0.848   3.803
 2359SOL    MW4 9468   3.564   0.904   3.782
 2360SOL     OW 9469   3.573   1.173   3.875
 2360SOL    HW2 9470   3.638   1.219   3.822
 2360SOL    HW3 9471   3.489   1.198   3.838
 2360SOL    MW4 9472   3.571   1.182   3.864
 2361SOL     OW 9473   3.768   1.329   3.749
 2361SOL    HW2 9474   3.849   1.280   3.765
 2361SOL    HW3 9475   3.785   1.415   3.788
 2361SOL    MW4 9476   3.781   1.334   3.756
 2362SOL     OW 9477   3.783   1.597   3.850
 2362SOL    HW2 9478   3.773   1.579   3.944
 2362SOL    HW3 9479   3.693   1.611   3.819
 2362SOL    MW4 9480   3.770   1.597   3.858
 2363SOL     OW 9481   3.529   1.677   3.775
 2363SOL    HW2 9482   3.457   1.628   3.816
 2363SOL    HW3 9483   3.518   1.664   3.681
 2363SOL    MW4 9484   3.518   1.669   3.768
 2364SOL     OW 9485   3.597   1.932   3.863
 2364SOL    HW2 9486   3.568   1.847   3.830
 2364SOL    HW3 9487   3.530   1.993   3.835
 2364SOL    MW4 9488   3.584   1.928   3.855
 2365SOL     OW 9489   3.830   2.042   3.762
 2365SOL    HW2 9490   3.908   2.018   3.812
 2365SOL    HW3 9491   3.759   1.994   3.804
 2365SOL    MW4 9492   3.831   2.033   3.774
 2366SOL     OW 9493   3.810   2.321   3.834
 2366SOL    HW2 9494   3.746   2.358   3.774
 2366SOL    HW3 9495   3.820   2.231   3.805
 2366SOL    MW4 9496   3.803   2.314   3.822
 2367SOL     OW 9497   3.574   2.443   3.738
 2367SOL    HW2 9498   3.509   2.394   3.789
 2367SOL    HW3 9499   3.538   2.443   3.649
 2367SOL    MW4 9500   3.561   2.436   3.733
 2368SOL     OW 9501   3.611   2.684   3.883
 2368SOL    HW2 9502   3.615   2.592   3.858
 2368SOL    HW3 9503   3.538   2.720   3.832
 2368SOL    MW4 9504   3.602   2.677   3.873
 2369SOL     OW 9505   3.824   2.842   3.710
 2369SOL    HW2 9506   3.909   2.818   3.748
 2369SOL    HW3 9507   3.760   2.800   3.767
 2369SOL    MW4 9508   3.827   2.834   3.723
 2370SOL     OW 9509   3.860   3.126   3.837
 2370SOL    HW2 9510   3.779   3.173   3.817
 2370SOL    HW3 9511   3.849   3.040   3.796
 2370SOL    MW4 9512   3.848   3.121   3.829
 2371SOL     OW 9513   3.575   3.206   3.788
 2371SOL    HW2 9514   3.575   3.296   3.820
 2371SOL    HW3 9515   3.581   3.215   3.693
 2371SOL    MW4 9516   3.576   3.219   3.779
 2372SOL     OW 9517   3.590   3.480   3.850
 2372SOL    HW2 9518   3.594   3.505   3.943
 2372SOL    HW3 9519   3.507   3.514   3.819
 2372SOL    MW4 9520   3.580   3.488   3.858
 2373SOL     OW 9521   3.815   3.622   3.753
 2373SOL    HW2 9522   3.807   3.709   3.793
 2373SOL    HW3 9523   3.732   3.579   3.772
 2373SOL    MW4 9524   3.803   3.628   3.761
 2374SOL     OW 9525   3.800   3.879   3.869
 2374SOL    HW2 9526   3.814   3.871   3.963
 2374SOL    HW3 9527   3.884   3.909   3.834
 2374SOL    MW4 9528   3.813   3.882   3.877
 2375SOL     OW 9529   3.603   4.025   3.766
 2375SOL    HW2 9530   3.618   4.118   3.778
 2375SOL    HW3 9531   3.674   3.982   3.814
 2375SOL    MW4 9532   3.614   4.032   3.774
 2376SOL     OW 9533   3.600   4.309   3.876
 2376SOL    HW2 9534   3.604   4.293   3.970
 2376SOL    HW3 9535   3.685   4.347   3.854
 2376SOL    MW4 9536   3.612   4.312   3.885
 2377SOL     OW 9537   3.817   4.396   3.737
 2377SOL    HW2 9538   3.883   4.337   3.774
 2377SOL    HW3 9539   3.806   4.367   3.647
 2377SOL    MW4 9540   3.824   4.385   3.730
 2378SOL     OW 9541   4.211   4.621   3.844
 2378SOL    HW2 9542   4.230   4.636   3.937
 2378SOL    HW3 9543   4.288   4.656   3.798
 2378SOL    MW4 9544   4.224   4.628   3.850
 2379SOL     OW 9545   4.012   0.134   3.784
 2379SOL    HW2 9546   4.087   0.079   3.808
 2379SOL    HW3 9547   4.026   0.153   3.691
 2379SOL    MW4 9548   4.024   0.129   3.775
 2380SOL     OW 9549   4.030   0.386   3.878
 2380SOL    HW2 9550   4.013   0.377   3.972
 2380SOL    HW3 9551   4.015   0.299   3.842
 2380SOL    MW4 9552   4.026   0.374   3.886
 2381SOL     OW 9553   4.277   0.533   3.809
 2381SOL    HW2 9554   4.210   0.467   3.826
 2381SOL    HW3 9555   4.299   0.522   3.716
 2381SOL    MW4 9556   4.271   0.523   3.799
 2382SOL     OW 9557   4.236   0.806   3.914
 2382SOL    HW2 9558   4.149   0.837   3.890
 2382SOL    HW3 9559   4.243   0.719   3.874
 2382SOL    MW4 9560   4.226   0.799   3.905
 2383SOL     OW 9561   4.014   0.915   3.805
 2383SOL    HW2 9562   3.984   1.004   3.820
 2383SOL    HW3 9563   4.032   0.910   3.711
 2383SOL    MW4 9564   4.013   0.926   3.795
 2384SOL     OW 9565   3.991   1.195   3.831
 2384SOL    HW2 9566   3.984   1.183   3.926
 2384SOL    HW3 9567   4.084   1.212   3.816
 2384SOL    MW4 9568   4.003   1.195   3.842
 2385SOL     OW 9569   4.273   1.267   3.781
 2385SOL    HW2 9570   4.290   1.357   3.809
 2385SOL    HW3 9571   4.293   1.267   3.687
 2385SOL    MW4 9572   4.278   1.279   3.772
 2386SOL     OW 9573   4.266   1.536   3.852
 2386SOL    HW2 9574   4.186   1.578   3.820
 2386SOL    HW3 9575   4.336   1.598   3.830
 2386SOL    MW4 9576   4.265   1.550   3.845
 2387SOL     OW 9577   4.038   1.674   3.784
 2387SOL    HW2 9578   4.053   1.760   3.823
 2387SOL    HW3 9579   3.946   1.656   3.801
 2387SOL    MW4 9580   4.028   1.683   3.791
 2388SOL     OW 9581   4.041   1.940   3.894
 2388SOL    HW2 9582   4.035   1.947   3.989
 2388SOL    HW3 9583   4.121   1.988   3.871
 2388SOL    MW4 9584   4.051   1.947   3.904
 2389SOL     OW 9585   4.229   2.080   3.772
 2389SOL    HW2 9586   4.241   2.172   3.799
 2389SOL    HW3 9587   4.227   2.084   3.676
 2389SOL    MW4 9588   4.230   2.093   3.763
 2390SOL     OW 9589   4.261   2.354   3.836
 2390SOL    HW2 9590   4.261   2.371   3.930
 2390SOL    HW3 9591   4.177   2.388   3.805
 2390SOL    MW4 9592   4.250   2.361   3.844
 2391SOL     OW 9593   4.028   2.475   3.729
 2391SOL    HW2 9594   4.039   2.563   3.766
 2391SOL    HW3 9595   3.957   2.436   3.781
 2391SOL    MW4 9596   4.021   2.481   3.741
 2392SOL     OW 9597   4.062   2.769   3.836
 2392SOL    HW2 9598   4.052   2.770   3.931
 2392SOL    HW3 9599   4.151   2.801   3.820
 2392SOL    MW4 9600   4.072   2.774   3.846
 2393SOL     OW 9601   4.307   2.871   3.765
 2393SOL    HW2 9602   4.316   2.954   3.811
 2393SOL    HW3 9603   4.372   2.813   3.805
 2393SOL    MW4 9604   4.316   2.874   3.776
 2394SOL     OW 9605   4.286   3.120   3.904
 2394SOL    HW2 9606   4.221   3.177   3.863
 2394SOL    HW3 9607   4.370   3.151   3.871
 2394SOL    MW4 9608   4.288   3.132   3.895
 2395SOL     OW 9609   4.086   3.257   3.757
 2395SOL    HW2 9610   4.016   3.194   3.775
 2395SOL    HW3 9611   4.080   3.274   3.663
 2395SOL    MW4 9612   4.076   3.251   3.747
 2396SOL     OW 9613   4.007   3.481   3.911
 2396SOL    HW2 9614   4.017   3.399   3.862
 2396SOL    HW3 9615   3.938   3.529   3.865
 2396SOL    MW4 9616   3.999   3.476   3.899
 2397SOL     OW 9617   4.252   3.590   3.793
 2397SOL    HW2 9618   4.180   3.549   3.841
 2397SOL    HW3 9619   4.330   3.547   3.827
 2397SOL    MW4 9620   4.252   3.579   3.804
 2398SOL     OW 9621   4.283   3.850   3.877
 2398SOL    HW2 9622   4.199   3.892   3.854
 2398SOL    HW3 9623   4.276   3.762   3.841
 2398SOL    MW4 9624   4.271   3.844   3.869
 2399SOL     OW 9625   4.045   3.962   3.775
 2399SOL    HW2 9626   4.045   4.046   3.821
 2399SOL    HW3 9627   4.037   3.986   3.683
 2399SOL    MW4 9628   4.044   3.976   3.769
 2400SOL     OW 9629   4.003   4.225   3.851
 2400SOL    HW2 9630   4.011   4.230   3.946
 2400SOL    HW3 9631   4.082   4.267   3.817
 2400SOL    MW4 9632   4.015   4.231   3.859
 2401SOL     OW 9633   4.215   4.349   3.753
 2401SOL    HW2 9634   4.210   4.437   3.791
 2401SOL    HW3 9635   4.291   4.309   3.795
 2401SOL    MW4 9636   4.224   4.355   3.763
 2402SOL     OW 9637   0.221   4.628   4.095
 2402SOL    HW2 9638   0.299   4.663   4.137
 2402SOL    HW3 9639   0.219   4.536   4.121
 2402SOL    MW4 9640   0.231   4.620   4.104
 2403SOL     OW 9641   0.036   0.121   4.221
 2403SOL    HW2 9642   0.018   0.106   4.313
 2403SOL    HW3 9643   0.085   0.043   4.193
 2403SOL    MW4 9644   0.040   0.108   4.229
 2404SOL     OW 9645   4.453   0.358   4.134
 2404SOL    HW2 9646   4.483   0.269   4.153
 2404SOL    HW3 9647   4.465   0.367   4.039
 2404SOL    MW4 9648   4.458   0.348   4.124
 2405SOL     OW 9649   0.206   0.493   4.227
 2405SOL    HW2 9650   0.277   0.433   4.203
 2405SOL    HW3 9651   0.131   0.465   4.175
 2405SOL    MW4 9652   0.205   0.481   4.217
 2406SOL     OW 9653   0.228   0.762   4.197
 2406SOL    HW2 9654   0.147   0.785   4.242
 2406SOL    HW3 9655   0.252   0.677   4.234
 2406SOL    MW4 9656   0.221   0.753   4.208
 2407SOL     OW 9657   4.467   0.872   4.279
 2407SOL    HW2 9658   4.384   0.831   4.254
 2407SOL    HW3 9659   4.468   0.955   4.233
 2407SOL    MW4 9660   4.456   0.877   4.270
 2408SOL     OW 9661   4.452   1.166   4.163
 2408SOL    HW2 9662   4.525   1.218   4.197
 2408SOL    HW3 9663   4.471   1.157   4.069
 2408SOL    MW4 9664   4.464   1.172   4.155
 2409SOL     OW 9665   0.204   1.266   4.189
 2409SOL    HW2 9666   0.219   1.265   4.283
 2409SOL    HW3 9667   0.281   1.223   4.152
 2409SOL    MW4 9668   0.216   1.260   4.196
 2410SOL     OW 9669   0.422   1.847   4.717
 2410SOL    HW2 9670   0.417   1.937   4.685
 2410SOL    HW3 9671   0.403   1.794   4.640
 2410SOL    MW4 9672   0.419   1.852   4.702
 2411SOL     OW 9673   0.006   1.664   4.236
 2411SOL    HW2 9674  -0.072   1.613   4.212
 2411SOL    HW3 9675  -0.015   1.753   4.206
 2411SOL    MW4 9676  -0.008   1.669   4.229
 2412SOL     OW 9677   0.194   2.078   4.235
 2412SOL    HW2 9678   0.201   2.095   4.329
 2412SOL    HW3 9679   0.265   2.017   4.216
 2412SOL    MW4 9680   0.204   2.072   4.245
 2413SOL     OW 9681   0.423   1.384   4.612
 2413SOL    HW2 9682   0.384   1.470   4.595
 2413SOL    HW3 9683   0.431   1.380   4.707
 2413SOL    MW4 9684   0.419   1.395   4.622
 2414SOL     OW 9685   0.201   2.329   4.133
 2414SOL    HW2 9686   0.278   2.367   4.175
 2414SOL    HW3 9687   0.194   2.242   4.172
 2414SOL    MW4 9688   0.210   2.323   4.144
 2415SOL     OW 9689   4.462   2.471   4.229
 2415SOL    HW2 9690   4.385   2.445   4.178
 2415SOL    HW3 9691   4.536   2.428   4.187
 2415SOL    MW4 9692   4.461   2.462   4.217
 2416SOL     OW 9693   4.450   2.732   4.135
 2416SOL    HW2 9694   4.519   2.767   4.191
 2416SOL    HW3 9695   4.446   2.639   4.158
 2416SOL    MW4 9696   4.458   2.724   4.146
 2417SOL     OW 9697   0.195   2.818   4.256
 2417SOL    HW2 9698   0.276   2.779   4.223
 2417SOL    HW3 9699   0.204   2.911   4.237
 2417SOL    MW4 9700   0.207   2.825   4.249
 2418SOL     OW 9701   0.176   3.087   4.171
 2418SOL    HW2 9702   0.256   3.130   4.200
 2418SOL    HW3 9703   0.106   3.144   4.200
 2418SOL    MW4 9704   0.178   3.100   4.178
 2419SOL     OW 9705   4.478   3.269   4.302
 2419SOL    HW2 9706   4.385   3.249   4.304
 2419SOL    HW3 9707   4.483   3.356   4.263
 2419SOL    MW4 9708   4.467   3.278   4.297
 2420SOL     OW 9709   0.050   3.515   4.167
 2420SOL    HW2 9710  -0.028   3.551   4.210
 2420SOL    HW3 9711   0.024   3.505   4.075
 2420SOL    MW4 9712   0.036   3.518   4.161
 2421SOL     OW 9713   0.280   3.630   4.286
 2421SOL    HW2 9714   0.343   3.570   4.246
 2421SOL    HW3 9715   0.196   3.605   4.247
 2421SOL    MW4 9716   0.277   3.619   4.276
 2422SOL     OW 9717   0.281   3.887   4.204
 2422SOL    HW2 9718   0.212   3.935   4.251
 2422SOL    HW3 9719   0.288   3.804   4.251
 2422SOL    MW4 9720   0.273   3.883   4.217
 2423SOL     OW 9721   0.024   3.990   4.269
 2423SOL    HW2 9722   0.029   3.985   4.364
 2423SOL    HW3 9723  -0.042   3.925   4.244
 2423SOL    MW4 9724   0.016   3.981   4.278
 2424SOL     OW 9725   4.452   4.253   4.179
 2424SOL    HW2 9726   4.475   4.162   4.196
 2424SOL    HW3 9727   4.422   4.253   4.088
 2424SOL    MW4 9728   4.451   4.241   4.169
 2425SOL     OW 9729   0.209   4.373   4.205
 2425SOL    HW2 9730   0.192   4.410   4.292
 2425SOL    HW3 9731   0.128   4.327   4.183
 2425SOL    MW4 9732   0.196   4.372   4.214
 2426SOL     OW 9733   0.677   4.610   4.109
 2426SOL    HW2 9734   0.600   4.663   4.130
 2426SOL    HW3 9735   0.668   4.593   4.015
 2426SOL    MW4 9736   0.666   4.615   4.099
 2427SOL     OW 9737   0.454   0.079   4.179
 2427SOL    HW2 9738   0.428   0.083   4.271
 2427SOL    HW3 9739   0.446   0.169   4.147
 2427SOL    MW4 9740   0.449   0.091   4.187
 2428SOL     OW 9741   0.424   0.344   4.129
 2428SOL    HW2 9742   0.502   0.394   4.154
 2428SOL    HW3 9743   0.425   0.343   4.034
 2428SOL    MW4 9744   0.435   0.350   4.120
 2429SOL     OW 9745   0.643   0.498   4.184
 2429SOL    HW2 9746   0.727   0.452   4.180
 2429SOL    HW3 9747   0.657   0.577   4.131
 2429SOL    MW4 9748   0.656   0.502   4.176
 2430SOL     OW 9749   0.674   0.767   4.118
 2430SOL    HW2 9750   0.603   0.825   4.146
 2430SOL    HW3 9751   0.664   0.762   4.023
 2430SOL    MW4 9752   0.663   0.774   4.109
 2431SOL     OW 9753   0.468   0.917   4.237
 2431SOL    HW2 9754   0.453   0.993   4.181
 2431SOL    HW3 9755   0.393   0.860   4.221
 2431SOL    MW4 9756   0.456   0.920   4.228
 2432SOL     OW 9757   0.446   1.157   4.075
 2432SOL    HW2 9758   0.527   1.202   4.100
 2432SOL    HW3 9759   0.454   1.144   3.980
 2432SOL    MW4 9760   0.458   1.161   4.066
 2433SOL     OW 9761   0.671   1.269   4.205
 2433SOL    HW2 9762   0.649   1.289   4.296
 2433SOL    HW3 9763   0.687   1.355   4.165
 2433SOL    MW4 9764   0.670   1.283   4.212
 2434SOL     OW 9765   0.687   1.532   4.136
 2434SOL    HW2 9766   0.765   1.579   4.165
 2434SOL    HW3 9767   0.671   1.563   4.047
 2434SOL    MW4 9768   0.695   1.542   4.129
 2435SOL     OW 9769   0.252   1.548   4.152
 2435SOL    HW2 9770   0.241   1.452   4.154
 2435SOL    HW3 9771   0.169   1.582   4.185
 2435SOL    MW4 9772   0.239   1.540   4.156
 2436SOL     OW 9773   0.427   1.938   4.149
 2436SOL    HW2 9774   0.434   1.845   4.174
 2436SOL    HW3 9775   0.445   1.939   4.055
 2436SOL    MW4 9776   0.430   1.926   4.140
 2437SOL     OW 9777   0.669   2.076   4.225
 2437SOL    HW2 9778   0.656   2.079   4.320
 2437SOL    HW3 9779   0.595   2.024   4.192
 2437SOL    MW4 9780   0.657   2.070   4.233
 2438SOL     OW 9781   0.647   2.337   4.154
 2438SOL    HW2 9782   0.648   2.244   4.176
 2438SOL    HW3 9783   0.650   2.340   4.059
 2438SOL    MW4 9784   0.648   2.325   4.145
 2439SOL     OW 9785   0.413   2.469   4.280
 2439SOL    HW2 9786   0.423   2.554   4.237
 2439SOL    HW3 9787   0.486   2.416   4.246
 2439SOL    MW4 9788   0.424   2.473   4.270
 2440SOL     OW 9789   0.409   2.714   4.142
 2440SOL    HW2 9790   0.501   2.732   4.163
 2440SOL    HW3 9791   0.411   2.687   4.050
 2440SOL    MW4 9792   0.422   2.713   4.132
 2441SOL     OW 9793   0.670   2.785   4.180
 2441SOL    HW2 9794   0.676   2.779   4.275
 2441SOL    HW3 9795   0.645   2.876   4.164
 2441SOL    MW4 9796   0.668   2.796   4.190
 2442SOL     OW 9797   0.620   3.073   4.114
 2442SOL    HW2 9798   0.689   3.118   4.161
 2442SOL    HW3 9799   0.539   3.115   4.143
 2442SOL    MW4 9800   0.618   3.084   4.124
 2443SOL     OW 9801   0.426   3.214   4.238
 2443SOL    HW2 9802   0.432   3.221   4.333
 2443SOL    HW3 9803   0.432   3.304   4.206
 2443SOL    MW4 9804   0.427   3.227   4.246
 2444SOL     OW 9805   0.473   3.473   4.163
 2444SOL    HW2 9806   0.553   3.515   4.196
 2444SOL    HW3 9807   0.474   3.491   4.069
 2444SOL    MW4 9808   0.484   3.481   4.155
 2445SOL     OW 9809   0.682   3.608   4.281
 2445SOL    HW2 9810   0.711   3.612   4.372
 2445SOL    HW3 9811   0.753   3.565   4.235
 2445SOL    MW4 9812   0.695   3.603   4.287
 2446SOL     OW 9813   0.724   3.870   4.173
 2446SOL    HW2 9814   0.645   3.921   4.190
 2446SOL    HW3 9815   0.704   3.783   4.208
 2446SOL    MW4 9816   0.711   3.865   4.179
 2447SOL     OW 9817   0.513   4.035   4.245
 2447SOL    HW2 9818   0.493   4.108   4.186
 2447SOL    HW3 9819   0.434   3.981   4.244
 2447SOL    MW4 9820   0.500   4.038   4.237
 2448SOL     OW 9821   0.462   4.268   4.116
 2448SOL    HW2 9822   0.382   4.293   4.162
 2448SOL    HW3 9823   0.439   4.279   4.023
 2448SOL    MW4 9824   0.448   4.273   4.110
 2449SOL     OW 9825   0.687   4.378   4.249
 2449SOL    HW2 9826   0.618   4.346   4.190
 2449SOL    HW3 9827   0.716   4.460   4.210
 2449SOL    MW4 9828   0.682   4.384   4.236
 2450SOL     OW 9829   1.101   4.620   4.140
 2450SOL    HW2 9830   1.103   4.528   4.164
 2450SOL    HW3 9831   1.104   4.619   4.044
 2450SOL    MW4 9832   1.102   4.608   4.130
 2451SOL     OW 9833   0.875   0.090   4.230
 2451SOL    HW2 9834   0.955   0.056   4.189
 2451SOL    HW3 9835   0.804   0.044   4.185
 2451SOL    MW4 9836   0.876   0.079   4.219
 2452SOL     OW 9837   0.884   0.351   4.129
 2452SOL    HW2 9838   0.966   0.388   4.161
 2452SOL    HW3 9839   0.877   0.267   4.172
 2452SOL    MW4 9840   0.894   0.345   4.139
 2453SOL     OW 9841   1.121   0.470   4.202
 2453SOL    HW2 9842   1.114   0.456   4.296
 2453SOL    HW3 9843   1.195   0.415   4.175
 2453SOL    MW4 9844   1.130   0.461   4.211
 2454SOL     OW 9845   1.154   0.730   4.106
 2454SOL    HW2 9846   1.238   0.763   4.137
 2454SOL    HW3 9847   1.144   0.645   4.151
 2454SOL    MW4 9848   1.164   0.723   4.116
 2455SOL     OW 9849   0.932   0.882   4.197
 2455SOL    HW2 9850   1.012   0.842   4.164
 2455SOL    HW3 9851   0.863   0.818   4.179
 2455SOL    MW4 9852   0.934   0.868   4.190
 2456SOL     OW 9853   0.912   1.155   4.126
 2456SOL    HW2 9854   0.920   1.060   4.137
 2456SOL    HW3 9855   0.830   1.177   4.169
 2456SOL    MW4 9856   0.903   1.145   4.133
 2457SOL     OW 9857   1.169   1.276   4.222
 2457SOL    HW2 9858   1.184   1.273   4.316
 2457SOL    HW3 9859   1.088   1.227   4.209
 2457SOL    MW4 9860   1.160   1.269   4.233
 2458SOL     OW 9861   1.154   1.530   4.109
 2458SOL    HW2 9862   1.070   1.566   4.138
 2458SOL    HW3 9863   1.157   1.442   4.147
 2458SOL    MW4 9864   1.143   1.523   4.118
 2459SOL     OW 9865   0.934   1.641   4.215
 2459SOL    HW2 9866   0.920   1.620   4.308
 2459SOL    HW3 9867   0.910   1.733   4.208
 2459SOL    MW4 9868   0.929   1.651   4.227
 2460SOL     OW 9869   0.880   1.923   4.166
 2460SOL    HW2 9870   0.811   1.989   4.171
 2460SOL    HW3 9871   0.903   1.920   4.074
 2460SOL    MW4 9872   0.874   1.931   4.155
 2461SOL     OW 9873   1.133   2.012   4.257
 2461SOL    HW2 9874   1.136   1.977   4.346
 2461SOL    HW3 9875   1.063   1.962   4.214
 2461SOL    MW4 9876   1.124   2.001   4.263
 2462SOL     OW 9877   1.090   2.288   4.194
 2462SOL    HW2 9878   1.180   2.313   4.216
 2462SOL    HW3 9879   1.080   2.200   4.230
 2462SOL    MW4 9880   1.101   2.280   4.202
 2463SOL     OW 9881   0.869   2.419   4.292
 2463SOL    HW2 9882   0.947   2.366   4.275
 2463SOL    HW3 9883   0.799   2.376   4.243
 2463SOL    MW4 9884   0.870   2.407   4.283
 2464SOL     OW 9885   0.904   2.635   4.108
 2464SOL    HW2 9886   0.905   2.554   4.160
 2464SOL    HW3 9887   0.819   2.674   4.126
 2464SOL    MW4 9888   0.893   2.629   4.117
 2465SOL     OW 9889   1.098   2.775   4.240
 2465SOL    HW2 9890   1.098   2.869   4.226
 2465SOL    HW3 9891   1.025   2.743   4.186
 2465SOL    MW4 9892   1.088   2.783   4.231
 2466SOL     OW 9893   1.126   3.055   4.182
 2466SOL    HW2 9894   1.201   3.100   4.220
 2466SOL    HW3 9895   1.142   3.057   4.088
 2466SOL    MW4 9896   1.138   3.061   4.175
 2467SOL     OW 9897   0.849   3.214   4.223
 2467SOL    HW2 9898   0.814   3.198   4.311
 2467SOL    HW3 9899   0.931   3.165   4.222
 2467SOL    MW4 9900   0.855   3.205   4.235
 2468SOL     OW 9901   0.899   3.483   4.147
 2468SOL    HW2 9902   0.884   3.395   4.183
 2468SOL    HW3 9903   0.908   3.469   4.053
 2468SOL    MW4 9904   0.899   3.469   4.139
 2469SOL     OW 9905   1.116   3.630   4.228
 2469SOL    HW2 9906   1.113   3.718   4.191
 2469SOL    HW3 9907   1.034   3.589   4.199
 2469SOL    MW4 9908   1.104   3.636   4.219
 2470SOL     OW 9909   1.109   3.885   4.105
 2470SOL    HW2 9910   1.186   3.909   4.157
 2470SOL    HW3 9911   1.037   3.933   4.145
 2470SOL    MW4 9912   1.109   3.894   4.117
 2471SOL     OW 9913   0.933   3.987   4.299
 2471SOL    HW2 9914   0.920   4.073   4.260
 2471SOL    HW3 9915   0.861   3.934   4.266
 2471SOL    MW4 9916   0.922   3.991   4.290
 2472SOL     OW 9917   0.908   4.224   4.153
 2472SOL    HW2 9918   0.986   4.270   4.184
 2472SOL    HW3 9919   0.835   4.275   4.188
 2472SOL    MW4 9920   0.909   4.237   4.162
 2473SOL     OW 9921   1.134   4.357   4.224
 2473SOL    HW2 9922   1.181   4.380   4.305
 2473SOL    HW3 9923   1.193   4.297   4.179
 2473SOL    MW4 9924   1.148   4.353   4.229
 2474SOL     OW 9925   1.560   4.659   4.087
 2474SOL    HW2 9926   1.649   4.665   4.121
 2474SOL    HW3 9927   1.505   4.684   4.161
 2474SOL    MW4 9928   1.564   4.663   4.101
 2475SOL     OW 9929   1.353   0.051   4.250
 2475SOL    HW2 9930   1.336   0.051   4.344
 2475SOL    HW3 9931   1.276   0.008   4.212
 2475SOL    MW4 9932   1.340   0.045   4.257
 2476SOL     OW 9933   1.342   0.315   4.100
 2476SOL    HW2 9934   1.421   0.357   4.134
 2476SOL    HW3 9935   1.343   0.228   4.139
 2476SOL    MW4 9936   1.353   0.309   4.110
 2477SOL     OW 9937   1.596   0.402   4.202
 2477SOL    HW2 9938   1.578   0.400   4.296
 2477SOL    HW3 9939   1.622   0.492   4.184
 2477SOL    MW4 9940   1.597   0.413   4.212
 2478SOL     OW 9941   1.620   0.683   4.144
 2478SOL    HW2 9942   1.700   0.719   4.183
 2478SOL    HW3 9943   1.619   0.718   4.056
 2478SOL    MW4 9944   1.631   0.692   4.138
 2479SOL     OW 9945   1.388   0.834   4.193
 2479SOL    HW2 9946   1.399   0.927   4.175
 2479SOL    HW3 9947   1.473   0.795   4.172
 2479SOL    MW4 9948   1.401   0.841   4.188
 2480SOL     OW 9949   1.385   1.104   4.135
 2480SOL    HW2 9950   1.317   1.169   4.155
 2480SOL    HW3 9951   1.395   1.110   4.040
 2480SOL    MW4 9952   1.377   1.114   4.125
 2481SOL     OW 9953   1.620   1.269   4.181
 2481SOL    HW2 9954   1.634   1.291   4.273
 2481SOL    HW3 9955   1.539   1.218   4.181
 2481SOL    MW4 9956   1.611   1.265   4.193
 2482SOL     OW 9957   1.624   1.551   4.125
 2482SOL    HW2 9958   1.538   1.584   4.151
 2482SOL    HW3 9959   1.616   1.456   4.131
 2482SOL    MW4 9960   1.612   1.543   4.129
 2483SOL     OW 9961   1.376   1.632   4.242
 2483SOL    HW2 9962   1.371   1.728   4.236
 2483SOL    HW3 9963   1.299   1.601   4.194
 2483SOL    MW4 9964   1.365   1.641   4.235
 2484SOL     OW 9965   1.384   1.911   4.204
 2484SOL    HW2 9966   1.459   1.938   4.256
 2484SOL    HW3 9967   1.313   1.969   4.233
 2484SOL    MW4 9968   1.384   1.922   4.214
 2485SOL     OW 9969   1.613   2.043   4.327
 2485SOL    HW2 9970   1.682   2.005   4.273
 2485SOL    HW3 9971   1.608   2.134   4.298
 2485SOL    MW4 9972   1.622   2.050   4.316
 2486SOL     OW 9973   1.604   2.289   4.189
 2486SOL    HW2 9974   1.644   2.365   4.231
 2486SOL    HW3 9975   1.603   2.311   4.096
 2486SOL    MW4 9976   1.609   2.302   4.182
 2487SOL     OW 9977   1.544   2.844   4.267
 2487SOL    HW2 9978   1.573   2.807   4.350
 2487SOL    HW3 9979   1.621   2.841   4.211
 2487SOL    MW4 9980   1.558   2.839   4.271
 2488SOL     OW 9981   1.345   2.660   4.241
 2488SOL    HW2 9982   1.414   2.727   4.244
 2488SOL    HW3 9983   1.264   2.708   4.256
 2488SOL    MW4 9984   1.344   2.675   4.243
 2489SOL     OW 9985   1.663   2.310   4.641
 2489SOL    HW2 9986   1.682   2.365   4.716
 2489SOL    HW3 9987   1.736   2.248   4.637
 2489SOL    MW4 9988   1.675   2.309   4.650
 2490SOL     OW 9989   1.500   3.108   4.176
 2490SOL    HW2 9990   1.581   3.155   4.198
 2490SOL    HW3 9991   1.513   3.021   4.212
 2490SOL    MW4 9992   1.512   3.103   4.184
 2491SOL     OW 9993   1.291   3.200   4.327
 2491SOL    HW2 9994   1.367   3.167   4.279
 2491SOL    HW3 9995   1.275   3.287   4.289
 2491SOL    MW4 9996   1.299   3.207   4.316
 2492SOL     OW 9997   1.265   3.422   4.135
 2492SOL    HW2 9998   1.215   3.496   4.168
 2492SOL    HW3 9999   1.253   3.426   4.040
 2492SOL    MW410000   1.257   3.432   4.126
 2493SOL     OW10001   1.541   3.545   4.156
 2493SOL    HW210002   1.556   3.559   4.250
 2493SOL    HW310003   1.457   3.500   4.151
 2493SOL    MW410004   1.532   3.541   4.168
 2494SOL     OW10005   1.562   3.806   4.081
 2494SOL    HW210006   1.482   3.846   4.115
 2494SOL    HW310007   1.554   3.713   4.105
 2494SOL    MW410008   1.550   3.799   4.089
 2495SOL     OW10009   1.348   3.925   4.232
 2495SOL    HW210010   1.367   3.897   4.322
 2495SOL    HW310011   1.347   4.021   4.236
 2495SOL    MW410012   1.351   3.934   4.244
 2496SOL     OW10013   1.342   4.233   4.120
 2496SOL    HW210014   1.413   4.292   4.147
 2496SOL    HW310015   1.339   4.243   4.025
 2496SOL    MW410016   1.351   4.242   4.111
 2497SOL     OW10017   1.576   4.395   4.214
 2497SOL    HW210018   1.571   4.478   4.167
 2497SOL    HW310019   1.657   4.354   4.183
 2497SOL    MW410020   1.586   4.401   4.204
 2498SOL     OW10021   2.025   4.613   4.106
 2498SOL    HW210022   1.955   4.660   4.151
 2498SOL    HW310023   2.027   4.649   4.018
 2498SOL    MW410024   2.016   4.624   4.100
 2499SOL     OW10025   1.812   0.065   4.205
 2499SOL    HW210026   1.799   0.070   4.299
 2499SOL    HW310027   1.811   0.157   4.176
 2499SOL    MW410028   1.810   0.078   4.213
 2500SOL     OW10029   1.837   0.317   4.090
 2500SOL    HW210030   1.901   0.365   4.142
 2500SOL    HW310031   1.753   0.338   4.130
 2500SOL    MW410032   1.835   0.326   4.102
 2501SOL     OW10033   2.042   0.455   4.227
 2501SOL    HW210034   2.012   0.405   4.303
 2501SOL    HW310035   2.117   0.405   4.195
 2501SOL    MW410036   2.048   0.442   4.233
 2502SOL     OW10037   2.044   0.690   4.088
 2502SOL    HW210038   2.111   0.746   4.126
 2502SOL    HW310039   2.050   0.608   4.138
 2502SOL    MW410040   2.053   0.687   4.100
 2503SOL     OW10041   1.829   0.829   4.217
 2503SOL    HW210042   1.833   0.924   4.206
 2503SOL    HW310043   1.905   0.796   4.170
 2503SOL    MW410044   1.839   0.837   4.210
 2504SOL     OW10045   1.853   1.129   4.165
 2504SOL    HW210046   1.922   1.186   4.199
 2504SOL    HW310047   1.775   1.183   4.165
 2504SOL    MW410048   1.852   1.144   4.169
 2505SOL     OW10049   2.067   1.254   4.274
 2505SOL    HW210050   2.130   1.211   4.216
 2505SOL    HW310051   2.073   1.347   4.251
 2505SOL    MW410052   2.076   1.260   4.264
 2506SOL     OW10053   2.088   1.500   4.168
 2506SOL    HW210054   2.140   1.569   4.209
 2506SOL    HW310055   2.085   1.524   4.075
 2506SOL    MW410056   2.094   1.512   4.161
 2507SOL     OW10057   1.840   1.663   4.247
 2507SOL    HW210058   1.918   1.615   4.219
 2507SOL    HW310059   1.767   1.616   4.207
 2507SOL    MW410060   1.840   1.650   4.238
 2508SOL     OW10061   1.798   1.921   4.168
 2508SOL    HW210062   1.802   1.826   4.180
 2508SOL    HW310063   1.887   1.952   4.184
 2508SOL    MW410064   1.810   1.913   4.171
 2509SOL     OW10065   1.729   2.474   4.352
 2509SOL    HW210066   1.757   2.449   4.440
 2509SOL    HW310067   1.796   2.535   4.322
 2509SOL    MW410068   1.741   2.479   4.360
 2510SOL     OW10069   2.497   2.316   4.159
 2510SOL    HW210070   2.451   2.236   4.185
 2510SOL    HW310071   2.478   2.325   4.066
 2510SOL    MW410072   2.489   2.307   4.150
 2511SOL     OW10073   1.816   3.004   4.369
 2511SOL    HW210074   1.812   2.946   4.293
 2511SOL    HW310075   1.908   3.000   4.397
 2511SOL    MW410076   1.828   2.996   4.363
 2512SOL     OW10077   1.763   2.845   4.091
 2512SOL    HW210078   1.815   2.779   4.136
 2512SOL    HW310079   1.825   2.916   4.073
 2512SOL    MW410080   1.778   2.846   4.094
 2513SOL     OW10081   2.048   3.213   4.286
 2513SOL    HW210082   2.058   3.148   4.356
 2513SOL    HW310083   2.015   3.164   4.211
 2513SOL    MW410084   2.045   3.198   4.285
 2514SOL     OW10085   2.203   2.903   4.078
 2514SOL    HW210086   2.293   2.935   4.085
 2514SOL    HW310087   2.183   2.870   4.166
 2514SOL    MW410088   2.212   2.903   4.091
 2515SOL     OW10089   1.741   3.249   4.242
 2515SOL    HW210090   1.805   3.312   4.211
 2515SOL    HW310091   1.791   3.187   4.294
 2515SOL    MW410092   1.756   3.249   4.245
 2516SOL     OW10093   1.819   3.498   4.125
 2516SOL    HW210094   1.725   3.512   4.132
 2516SOL    HW310095   1.832   3.472   4.033
 2516SOL    MW410096   1.808   3.497   4.114
 2517SOL     OW10097   2.033   3.615   4.274
 2517SOL    HW210098   2.046   3.697   4.226
 2517SOL    HW310099   1.966   3.568   4.225
 2517SOL    MW410100   2.026   3.620   4.261
 2518SOL     OW10101   1.995   3.846   4.113
 2518SOL    HW210102   1.910   3.874   4.149
 2518SOL    HW310103   1.983   3.848   4.018
 2518SOL    MW410104   1.982   3.850   4.105
 2519SOL     OW10105   1.756   3.946   4.232
 2519SOL    HW210106   1.760   4.021   4.174
 2519SOL    HW310107   1.691   3.888   4.192
 2519SOL    MW410108   1.748   3.948   4.219
 2520SOL     OW10109   1.770   4.196   4.112
 2520SOL    HW210110   1.860   4.194   4.146
 2520SOL    HW310111   1.781   4.209   4.018
 2520SOL    MW410112   1.784   4.197   4.104
 2521SOL     OW10113   2.000   4.337   4.199
 2521SOL    HW210114   2.019   4.345   4.293
 2521SOL    HW310115   1.992   4.427   4.168
 2521SOL    MW410116   2.002   4.350   4.207
 2522SOL     OW10117   2.449   4.621   4.117
 2522SOL    HW210118   2.535   4.659   4.136
 2522SOL    HW310119   2.448   4.539   4.167
 2522SOL    MW410120   2.460   4.615   4.126
 2523SOL     OW10121   2.239   0.093   4.242
 2523SOL    HW210122   2.313   0.048   4.200
 2523SOL    HW310123   2.162   0.044   4.214
 2523SOL    MW410124   2.239   0.081   4.233
 2524SOL     OW10125   2.278   0.333   4.117
 2524SOL    HW210126   2.257   0.245   4.148
 2524SOL    HW310127   2.270   0.328   4.021
 2524SOL    MW410128   2.274   0.321   4.108
 2525SOL     OW10129   2.470   0.491   4.223
 2525SOL    HW210130   2.458   0.472   4.316
 2525SOL    HW310131   2.404   0.436   4.179
 2525SOL    MW410132   2.460   0.481   4.229
 2526SOL     OW10133   2.502   0.758   4.136
 2526SOL    HW210134   2.497   0.668   4.166
 2526SOL    HW310135   2.489   0.753   4.041
 2526SOL    MW410136   2.500   0.746   4.127
 2527SOL     OW10137   2.235   0.887   4.211
 2527SOL    HW210138   2.187   0.882   4.293
 2527SOL    HW310139   2.321   0.850   4.231
 2527SOL    MW410140   2.240   0.881   4.224
 2528SOL     OW10141   2.265   1.137   4.116
 2528SOL    HW210142   2.342   1.172   4.161
 2528SOL    HW310143   2.257   1.048   4.149
 2528SOL    MW410144   2.274   1.130   4.127
 2529SOL     OW10145   2.475   1.251   4.258
 2529SOL    HW210146   2.467   1.214   4.346
 2529SOL    HW310147   2.546   1.200   4.218
 2529SOL    MW410148   2.484   1.239   4.264
 2530SOL     OW10149   2.427   1.498   4.148
 2530SOL    HW210150   2.444   1.413   4.189
 2530SOL    HW310151   2.424   1.479   4.054
 2530SOL    MW410152   2.429   1.484   4.141
 2531SOL     OW10153   2.278   1.694   4.274
 2531SOL    HW210154   2.337   1.626   4.243
 2531SOL    HW310155   2.290   1.767   4.213
 2531SOL    MW410156   2.287   1.695   4.262
 2532SOL     OW10157   2.315   1.929   4.092
 2532SOL    HW210158   2.410   1.937   4.101
 2532SOL    HW310159   2.280   1.992   4.155
 2532SOL    MW410160   2.323   1.939   4.101
 2533SOL     OW10161   2.319   2.141   4.277
 2533SOL    HW210162   2.235   2.183   4.293
 2533SOL    HW310163   2.344   2.104   4.361
 2533SOL    MW410164   2.311   2.141   4.290
 2534SOL     OW10165   2.653   2.552   4.121
 2534SOL    HW210166   2.586   2.487   4.143
 2534SOL    HW310167   2.683   2.584   4.206
 2534SOL    MW410168   2.648   2.547   4.135
 2535SOL     OW10169   2.363   2.504   4.503
 2535SOL    HW210170   2.337   2.534   4.416
 2535SOL    HW310171   2.405   2.580   4.543
 2535SOL    MW410172   2.365   2.518   4.496
 2536SOL     OW10173   1.922   2.662   4.219
 2536SOL    HW210174   1.985   2.709   4.273
 2536SOL    HW310175   1.972   2.592   4.178
 2536SOL    MW410176   1.937   2.659   4.221
 2537SOL     OW10177   2.477   2.806   4.296
 2537SOL    HW210178   2.435   2.733   4.249
 2537SOL    HW310179   2.407   2.843   4.349
 2537SOL    MW410180   2.462   2.801   4.297
 2538SOL     OW10181   2.309   3.261   4.242
 2538SOL    HW210182   2.217   3.243   4.257
 2538SOL    HW310183   2.353   3.231   4.322
 2538SOL    MW410184   2.303   3.254   4.254
 2539SOL     OW10185   1.978   3.038   4.079
 2539SOL    HW210186   1.971   3.047   3.984
 2539SOL    HW310187   2.057   2.986   4.092
 2539SOL    MW410188   1.987   3.033   4.068
 2540SOL     OW10189   2.258   3.517   4.133
 2540SOL    HW210190   2.271   3.431   4.172
 2540SOL    HW310191   2.183   3.554   4.180
 2540SOL    MW410192   2.250   3.511   4.145
 2541SOL     OW10193   2.451   3.637   4.273
 2541SOL    HW210194   2.388   3.593   4.216
 2541SOL    HW310195   2.449   3.728   4.245
 2541SOL    MW410196   2.442   3.643   4.262
 2542SOL     OW10197   2.462   3.885   4.165
 2542SOL    HW210198   2.550   3.904   4.195
 2542SOL    HW310199   2.471   3.873   4.070
 2542SOL    MW410200   2.474   3.886   4.156
 2543SOL     OW10201   2.221   3.965   4.275
 2543SOL    HW210202   2.306   3.959   4.231
 2543SOL    HW310203   2.161   3.918   4.216
 2543SOL    MW410204   2.224   3.958   4.261
 2544SOL     OW10205   2.234   4.218   4.158
 2544SOL    HW210206   2.230   4.147   4.222
 2544SOL    HW310207   2.147   4.257   4.160
 2544SOL    MW410208   2.222   4.214   4.167
 2545SOL     OW10209   2.421   4.392   4.259
 2545SOL    HW210210   2.495   4.341   4.226
 2545SOL    HW310211   2.344   4.345   4.226
 2545SOL    MW410212   2.421   4.379   4.250
 2546SOL     OW10213   2.962   4.632   4.148
 2546SOL    HW210214   3.031   4.668   4.204
 2546SOL    HW310215   2.954   4.541   4.176
 2546SOL    MW410216   2.970   4.625   4.159
 2547SOL     OW10217   2.706   0.052   4.184
 2547SOL    HW210218   2.703   0.146   4.168
 2547SOL    HW310219   2.799   0.029   4.175
 2547SOL    MW410220   2.718   0.061   4.181
 2548SOL     OW10221   2.662   0.320   4.130
 2548SOL    HW210222   2.597   0.378   4.171
 2548SOL    HW310223   2.648   0.330   4.036
 2548SOL    MW410224   2.651   0.329   4.123
 2549SOL     OW10225   3.303   0.764   4.178
 2549SOL    HW210226   3.321   0.816   4.257
 2549SOL    HW310227   3.213   0.787   4.155
 2549SOL    MW410228   3.294   0.774   4.185
 2550SOL     OW10229   3.041   0.838   4.111
 2550SOL    HW210230   3.043   0.933   4.100
 2550SOL    HW310231   3.013   0.805   4.025
 2550SOL    MW410232   3.037   0.846   4.098
 2551SOL     OW10233   2.721   0.862   4.284
 2551SOL    HW210234   2.793   0.800   4.283
 2551SOL    HW310235   2.653   0.821   4.231
 2551SOL    MW410236   2.721   0.849   4.277
 2552SOL     OW10237   2.687   1.116   4.146
 2552SOL    HW210238   2.720   1.041   4.196
 2552SOL    HW310239   2.696   1.090   4.054
 2552SOL    MW410240   2.693   1.103   4.140
 2553SOL     OW10241   2.889   1.277   4.246
 2553SOL    HW210242   2.963   1.221   4.224
 2553SOL    HW310243   2.813   1.234   4.206
 2553SOL    MW410244   2.889   1.264   4.238
 2554SOL     OW10245   2.868   1.507   4.130
 2554SOL    HW210246   2.941   1.556   4.169
 2554SOL    HW310247   2.876   1.419   4.167
 2554SOL    MW410248   2.878   1.502   4.140
 2555SOL     OW10249   2.642   1.661   4.189
 2555SOL    HW210250   2.711   1.609   4.148
 2555SOL    HW310251   2.565   1.605   4.187
 2555SOL    MW410252   2.641   1.647   4.183
 2556SOL     OW10253   2.576   1.928   4.127
 2556SOL    HW210254   2.600   1.840   4.158
 2556SOL    HW310255   2.607   1.930   4.036
 2556SOL    MW410256   2.584   1.917   4.119
 2557SOL     OW10257   2.788   2.083   4.214
 2557SOL    HW210258   2.784   2.170   4.174
 2557SOL    HW310259   2.704   2.042   4.191
 2557SOL    MW410260   2.776   2.089   4.206
 2558SOL     OW10261   2.845   2.336   4.123
 2558SOL    HW210262   2.908   2.387   4.175
 2558SOL    HW310263   2.766   2.388   4.123
 2558SOL    MW410264   2.843   2.349   4.130
 2559SOL     OW10265   2.647   2.991   4.164
 2559SOL    HW210266   2.659   3.062   4.227
 2559SOL    HW310267   2.606   2.921   4.214
 2559SOL    MW410268   2.643   2.991   4.179
 2560SOL     OW10269   2.415   3.089   4.053
 2560SOL    HW210270   2.497   3.062   4.094
 2560SOL    HW310271   2.373   3.146   4.118
 2560SOL    MW410272   2.420   3.093   4.067
 2561SOL     OW10273   2.914   2.926   4.064
 2561SOL    HW210274   2.829   2.921   4.108
 2561SOL    HW310275   2.894   2.961   3.977
 2561SOL    MW410276   2.900   2.930   4.058
 2562SOL     OW10277   2.926   3.134   4.246
 2562SOL    HW210278   2.934   3.095   4.333
 2562SOL    HW310279   2.945   3.062   4.186
 2562SOL    MW410280   2.929   3.120   4.250
 2563SOL     OW10281   2.681   3.221   4.311
 2563SOL    HW210282   2.698   3.293   4.371
 2563SOL    HW310283   2.766   3.202   4.272
 2563SOL    MW410284   2.694   3.228   4.314
 2564SOL     OW10285   2.636   3.459   4.141
 2564SOL    HW210286   2.636   3.393   4.211
 2564SOL    HW310287   2.568   3.521   4.166
 2564SOL    MW410288   2.627   3.458   4.154
 2565SOL     OW10289   2.893   3.636   4.190
 2565SOL    HW210290   2.911   3.612   4.281
 2565SOL    HW310291   2.811   3.590   4.170
 2565SOL    MW410292   2.884   3.627   4.199
 2566SOL     OW10293   2.912   3.895   4.096
 2566SOL    HW210294   2.995   3.933   4.126
 2566SOL    HW310295   2.918   3.802   4.120
 2566SOL    MW410296   2.924   3.888   4.103
 2567SOL     OW10297   2.691   4.000   4.232
 2567SOL    HW210298   2.670   4.091   4.207
 2567SOL    HW310299   2.771   3.981   4.184
 2567SOL    MW410300   2.699   4.010   4.222
 2568SOL     OW10301   2.651   4.270   4.137
 2568SOL    HW210302   2.743   4.291   4.157
 2568SOL    HW310303   2.643   4.288   4.044
 2568SOL    MW410304   2.662   4.275   4.128
 2569SOL     OW10305   2.940   4.349   4.239
 2569SOL    HW210306   2.958   4.323   4.330
 2569SOL    HW310307   3.022   4.332   4.193
 2569SOL    MW410308   2.953   4.343   4.245
 2570SOL     OW10309   3.396   4.635   4.147
 2570SOL    HW210310   3.456   4.694   4.193
 2570SOL    HW310311   3.412   4.549   4.187
 2570SOL    MW410312   3.406   4.631   4.158
 2571SOL     OW10313   3.165   0.032   4.315
 2571SOL    HW210314   3.167  -0.012   4.400
 2571SOL    HW310315   3.245   0.003   4.271
 2571SOL    MW410316   3.176   0.022   4.321
 2572SOL     OW10317   3.170   0.321   4.118
 2572SOL    HW210318   3.232   0.376   4.167
 2572SOL    HW310319   3.086   0.338   4.159
 2572SOL    MW410320   3.167   0.330   4.130
 2573SOL     OW10321   3.340   0.496   4.258
 2573SOL    HW210322   3.429   0.473   4.230
 2573SOL    HW310323   3.323   0.581   4.218
 2573SOL    MW410324   3.349   0.504   4.249
 2574SOL     OW10325   3.427   0.649   4.515
 2574SOL    HW210326   3.401   0.740   4.505
 2574SOL    HW310327   3.386   0.604   4.441
 2574SOL    MW410328   3.418   0.655   4.504
 2575SOL     OW10329   3.150   0.958   4.586
 2575SOL    HW210330   3.192   1.028   4.637
 2575SOL    HW310331   3.151   0.883   4.644
 2575SOL    MW410332   3.156   0.958   4.600
 2576SOL     OW10333   3.079   1.120   4.119
 2576SOL    HW210334   3.166   1.121   4.159
 2576SOL    HW310335   3.095   1.129   4.025
 2576SOL    MW410336   3.092   1.121   4.112
 2577SOL     OW10337   3.332   1.137   4.260
 2577SOL    HW210338   3.336   1.069   4.327
 2577SOL    HW310339   3.298   1.214   4.306
 2577SOL    MW410340   3.328   1.138   4.275
 2578SOL     OW10341   3.281   1.388   4.376
 2578SOL    HW210342   3.280   1.441   4.296
 2578SOL    HW310343   3.372   1.393   4.406
 2578SOL    MW410344   3.293   1.396   4.369
 2579SOL     OW10345   3.073   1.673   4.219
 2579SOL    HW210346   3.060   1.682   4.313
 2579SOL    HW310347   3.062   1.761   4.184
 2579SOL    MW410348   3.070   1.686   4.227
 2580SOL     OW10349   3.055   1.959   4.105
 2580SOL    HW210350   3.120   2.024   4.130
 2580SOL    HW310351   2.972   1.994   4.139
 2580SOL    MW410352   3.052   1.972   4.113
 2581SOL     OW10353   3.289   2.090   4.187
 2581SOL    HW210354   3.370   2.041   4.173
 2581SOL    HW310355   3.311   2.180   4.160
 2581SOL    MW410356   3.303   2.096   4.182
 2582SOL     OW10357   3.292   2.358   4.138
 2582SOL    HW210358   3.367   2.392   4.187
 2582SOL    HW310359   3.316   2.370   4.046
 2582SOL    MW410360   3.305   2.364   4.132
 2583SOL     OW10361   3.053   2.483   4.238
 2583SOL    HW210362   3.067   2.567   4.194
 2583SOL    HW310363   3.122   2.426   4.204
 2583SOL    MW410364   3.064   2.487   4.228
 2584SOL     OW10365   3.109   2.725   4.095
 2584SOL    HW210366   3.175   2.771   4.147
 2584SOL    HW310367   3.036   2.788   4.088
 2584SOL    MW410368   3.108   2.740   4.101
 2585SOL     OW10369   3.312   2.842   4.224
 2585SOL    HW210370   3.398   2.805   4.203
 2585SOL    HW310371   3.320   2.935   4.200
 2585SOL    MW410372   3.325   2.850   4.218
 2586SOL     OW10373   3.326   3.098   4.136
 2586SOL    HW210374   3.264   3.167   4.158
 2586SOL    HW310375   3.334   3.102   4.041
 2586SOL    MW410376   3.319   3.107   4.127
 2587SOL     OW10377   3.159   3.303   4.255
 2587SOL    HW210378   3.149   3.377   4.195
 2587SOL    HW310379   3.076   3.256   4.251
 2587SOL    MW410380   3.147   3.307   4.247
 2588SOL     OW10381   3.105   3.521   4.053
 2588SOL    HW210382   3.019   3.538   4.091
 2588SOL    HW310383   3.090   3.519   3.958
 2588SOL    MW410384   3.092   3.523   4.045
 2589SOL     OW10385   3.308   3.654   4.193
 2589SOL    HW210386   3.281   3.653   4.285
 2589SOL    HW310387   3.240   3.605   4.147
 2589SOL    MW410388   3.296   3.647   4.199
 2590SOL     OW10389   3.409   3.890   4.117
 2590SOL    HW210390   3.387   3.805   4.154
 2590SOL    HW310391   3.404   3.877   4.022
 2590SOL    MW410392   3.405   3.877   4.109
 2591SOL     OW10393   3.160   3.993   4.190
 2591SOL    HW210394   3.138   4.015   4.281
 2591SOL    HW310395   3.246   3.952   4.195
 2591SOL    MW410396   3.169   3.990   4.203
 2592SOL     OW10397   3.170   4.264   4.108
 2592SOL    HW210398   3.237   4.294   4.169
 2592SOL    HW310399   3.165   4.169   4.123
 2592SOL    MW410400   3.178   4.255   4.118
 2593SOL     OW10401   3.377   4.373   4.247
 2593SOL    HW210402   3.398   4.397   4.337
 2593SOL    HW310403   3.453   4.323   4.217
 2593SOL    MW410404   3.390   4.369   4.255
 2594SOL     OW10405   3.773   4.641   4.109
 2594SOL    HW210406   3.842   4.700   4.140
 2594SOL    HW310407   3.785   4.638   4.014
 2594SOL    MW410408   3.784   4.648   4.101
 2595SOL     OW10409   3.587   0.113   4.295
 2595SOL    HW210410   3.587   0.206   4.273
 2595SOL    HW310411   3.648   0.074   4.232
 2595SOL    MW410412   3.595   0.120   4.284
 2596SOL     OW10413   3.577   0.374   4.210
 2596SOL    HW210414   3.652   0.417   4.251
 2596SOL    HW310415   3.592   0.384   4.116
 2596SOL    MW410416   3.589   0.381   4.203
 2597SOL     OW10417   3.798   0.479   4.337
 2597SOL    HW210418   3.791   0.424   4.415
 2597SOL    HW310419   3.773   0.566   4.367
 2597SOL    MW410420   3.794   0.483   4.351
 2598SOL     OW10421   3.702   0.826   4.192
 2598SOL    HW210422   3.658   0.908   4.169
 2598SOL    HW310423   3.735   0.793   4.109
 2598SOL    MW410424   3.700   0.833   4.178
 2599SOL     OW10425   3.682   0.701   4.435
 2599SOL    HW210426   3.592   0.679   4.459
 2599SOL    HW310427   3.673   0.743   4.349
 2599SOL    MW410428   3.669   0.704   4.427
 2600SOL     OW10429   3.577   1.076   4.135
 2600SOL    HW210430   3.492   1.064   4.177
 2600SOL    HW310431   3.557   1.121   4.053
 2600SOL    MW410432   3.563   1.080   4.130
 2601SOL     OW10433   3.753   1.282   4.212
 2601SOL    HW210434   3.683   1.218   4.200
 2601SOL    HW310435   3.771   1.280   4.306
 2601SOL    MW410436   3.746   1.273   4.223
 2602SOL     OW10437   3.760   1.534   4.122
 2602SOL    HW210438   3.754   1.439   4.133
 2602SOL    HW310439   3.831   1.560   4.180
 2602SOL    MW410440   3.769   1.525   4.131
 2603SOL     OW10441   3.530   1.948   4.139
 2603SOL    HW210442   3.543   1.938   4.045
 2603SOL    HW310443   3.519   1.859   4.171
 2603SOL    MW410444   3.530   1.935   4.131
 2604SOL     OW10445   3.319   1.539   4.144
 2604SOL    HW210446   3.321   1.530   4.048
 2604SOL    HW310447   3.248   1.601   4.161
 2604SOL    MW410448   3.310   1.546   4.133
 2605SOL     OW10449   3.766   2.079   4.238
 2605SOL    HW210450   3.753   2.076   4.333
 2605SOL    HW310451   3.694   2.026   4.203
 2605SOL    MW410452   3.755   2.071   4.246
 2606SOL     OW10453   3.789   2.355   4.149
 2606SOL    HW210454   3.786   2.261   4.164
 2606SOL    HW310455   3.773   2.365   4.055
 2606SOL    MW410456   3.786   2.344   4.139
 2607SOL     OW10457   3.542   2.445   4.247
 2607SOL    HW210458   3.567   2.458   4.338
 2607SOL    HW310459   3.620   2.407   4.206
 2607SOL    MW410460   3.555   2.442   4.254
 2608SOL     OW10461   3.577   2.707   4.163
 2608SOL    HW210462   3.576   2.614   4.187
 2608SOL    HW310463   3.585   2.707   4.068
 2608SOL    MW410464   3.578   2.694   4.154
 2609SOL     OW10465   3.794   2.851   4.214
 2609SOL    HW210466   3.821   2.854   4.306
 2609SOL    HW310467   3.715   2.796   4.214
 2609SOL    MW410468   3.787   2.844   4.227
 2610SOL     OW10469   3.798   3.107   4.133
 2610SOL    HW210470   3.791   3.014   4.154
 2610SOL    HW310471   3.814   3.110   4.038
 2610SOL    MW410472   3.799   3.095   4.123
 2611SOL     OW10473   3.590   3.270   4.213
 2611SOL    HW210474   3.658   3.210   4.182
 2611SOL    HW310475   3.508   3.232   4.182
 2611SOL    MW410476   3.588   3.257   4.205
 2612SOL     OW10477   3.587   3.545   4.148
 2612SOL    HW210478   3.577   3.450   4.159
 2612SOL    HW310479   3.499   3.580   4.164
 2612SOL    MW410480   3.574   3.537   4.152
 2613SOL     OW10481   3.832   3.633   4.274
 2613SOL    HW210482   3.893   3.562   4.252
 2613SOL    HW310483   3.748   3.603   4.240
 2613SOL    MW410484   3.829   3.619   4.267
 2614SOL     OW10485   3.851   3.888   4.148
 2614SOL    HW210486   3.773   3.939   4.172
 2614SOL    HW310487   3.838   3.803   4.192
 2614SOL    MW410488   3.839   3.883   4.157
 2615SOL     OW10489   3.612   4.011   4.250
 2615SOL    HW210490   3.584   4.034   4.339
 2615SOL    HW310491   3.536   3.970   4.211
 2615SOL    MW410492   3.598   4.009   4.257
 2616SOL     OW10493   3.606   4.269   4.140
 2616SOL    HW210494   3.688   4.311   4.167
 2616SOL    HW310495   3.613   4.179   4.172
 2616SOL    MW410496   3.618   4.262   4.148
 2617SOL     OW10497   3.820   4.405   4.233
 2617SOL    HW210498   3.902   4.370   4.199
 2617SOL    HW310499   3.801   4.481   4.178
 2617SOL    MW410500   3.828   4.410   4.221
 2618SOL     OW10501   4.260   0.003   4.111
 2618SOL    HW210502   4.221  -0.066   4.164
 2618SOL    HW310503   4.325   0.044   4.168
 2618SOL    MW410504   4.264   0.000   4.125
 2619SOL     OW10505   4.007   0.110   4.185
 2619SOL    HW210506   3.998   0.204   4.169
 2619SOL    HW310507   4.092   0.087   4.149
 2619SOL    MW410508   4.017   0.119   4.178
 2620SOL     OW10509   3.996   0.389   4.159
 2620SOL    HW210510   4.074   0.422   4.203
 2620SOL    HW310511   3.923   0.419   4.214
 2620SOL    MW410512   3.997   0.397   4.172
 2621SOL     OW10513   4.239   0.479   4.261
 2621SOL    HW210514   4.230   0.568   4.225
 2621SOL    HW310515   4.311   0.441   4.212
 2621SOL    MW410516   4.247   0.486   4.250
 2622SOL     OW10517   4.225   0.767   4.184
 2622SOL    HW210518   4.142   0.809   4.207
 2622SOL    HW310519   4.230   0.775   4.088
 2622SOL    MW410520   4.215   0.774   4.174
 2623SOL     OW10521   3.970   0.917   4.228
 2623SOL    HW210522   3.962   1.009   4.200
 2623SOL    HW310523   3.880   0.888   4.241
 2623SOL    MW410524   3.957   0.926   4.226
 2624SOL     OW10525   3.978   1.176   4.091
 2624SOL    HW210526   4.063   1.202   4.126
 2624SOL    HW310527   3.914   1.217   4.149
 2624SOL    MW410528   3.981   1.185   4.104
 2625SOL     OW10529   4.206   1.262   4.230
 2625SOL    HW210530   4.184   1.253   4.323
 2625SOL    HW310531   4.289   1.216   4.221
 2625SOL    MW410532   4.214   1.254   4.241
 2626SOL     OW10533   4.253   1.538   4.147
 2626SOL    HW210534   4.238   1.455   4.191
 2626SOL    HW310535   4.237   1.519   4.054
 2626SOL    MW410536   4.249   1.525   4.140
 2627SOL     OW10537   4.116   1.728   4.301
 2627SOL    HW210538   4.151   1.760   4.385
 2627SOL    HW310539   4.191   1.690   4.257
 2627SOL    MW410540   4.131   1.727   4.306
 2628SOL     OW10541   4.012   1.962   4.162
 2628SOL    HW210542   4.027   1.880   4.209
 2628SOL    HW310543   3.929   1.995   4.197
 2628SOL    MW410544   4.003   1.955   4.173
 2629SOL     OW10545   4.456   1.932   4.179
 2629SOL    HW210546   4.531   1.986   4.205
 2629SOL    HW310547   4.380   1.987   4.199
 2629SOL    MW410548   4.456   1.947   4.185
 2630SOL     OW10549   4.247   2.355   4.108
 2630SOL    HW210550   4.174   2.397   4.154
 2630SOL    HW310551   4.266   2.277   4.160
 2630SOL    MW410552   4.240   2.351   4.121
 2631SOL     OW10553   4.028   2.461   4.218
 2631SOL    HW210554   4.026   2.498   4.306
 2631SOL    HW310555   3.940   2.426   4.205
 2631SOL    MW410556   4.016   2.461   4.228
 2632SOL     OW10557   3.998   2.706   4.103
 2632SOL    HW210558   4.006   2.618   4.141
 2632SOL    HW310559   3.926   2.746   4.151
 2632SOL    MW410560   3.990   2.699   4.115
 2633SOL     OW10561   4.227   2.869   4.210
 2633SOL    HW210562   4.147   2.828   4.178
 2633SOL    HW310563   4.298   2.825   4.163
 2633SOL    MW410564   4.226   2.858   4.199
 2634SOL     OW10565   4.275   3.144   4.177
 2634SOL    HW210566   4.267   3.049   4.187
 2634SOL    HW310567   4.291   3.156   4.084
 2634SOL    MW410568   4.276   3.133   4.166
 2635SOL     OW10569   4.020   3.219   4.278
 2635SOL    HW210570   4.102   3.178   4.249
 2635SOL    HW310571   3.953   3.176   4.225
 2635SOL    MW410572   4.022   3.208   4.267
 2636SOL     OW10573   4.072   3.467   4.197
 2636SOL    HW210574   4.045   3.379   4.223
 2636SOL    HW310575   4.056   3.469   4.102
 2636SOL    MW410576   4.066   3.456   4.188
 2637SOL     OW10577   4.296   3.582   4.293
 2637SOL    HW210578   4.288   3.667   4.250
 2637SOL    HW310579   4.223   3.531   4.258
 2637SOL    MW410580   4.285   3.586   4.283
 2638SOL     OW10581   4.322   3.825   4.148
 2638SOL    HW210582   4.240   3.874   4.159
 2638SOL    HW310583   4.334   3.819   4.053
 2638SOL    MW410584   4.313   3.831   4.137
 2639SOL     OW10585   4.096   3.974   4.198
 2639SOL    HW210586   4.103   3.980   4.293
 2639SOL    HW310587   4.007   3.944   4.181
 2639SOL    MW410588   4.085   3.971   4.208
 2640SOL     OW10589   4.031   4.249   4.111
 2640SOL    HW210590   4.106   4.308   4.120
 2640SOL    HW310591   4.064   4.164   4.142
 2640SOL    MW410592   4.045   4.245   4.116
 2641SOL     OW10593   4.075   4.343   4.540
 2641SOL    HW210594   4.090   4.279   4.610
 2641SOL    HW310595   3.980   4.354   4.538
 2641SOL    MW410596   4.064   4.336   4.549
 2642SOL     OW10597   4.067   4.120   4.724
 2642SOL    HW210598   3.974   4.135   4.741
 2642SOL    HW310599   4.088   4.040   4.772
 2642SOL    MW410600   4.058   4.111   4.733
 2643SOL     OW10601   4.327   4.258   4.446
 2643SOL    HW210602   4.243   4.300   4.467
 2643SOL    HW310603   4.325   4.247   4.351
 2643SOL    MW410604   4.316   4.262   4.436
 2644SOL     OW10605   4.194   4.575   4.473
 2644SOL    HW210606   4.131   4.648   4.471
 2644SOL    HW310607   4.145   4.503   4.513
 2644SOL    MW410608   4.179   4.575   4.478
 2645SOL     OW10609   4.222   1.898   4.527
 2645SOL    HW210610   4.317   1.908   4.541
 2645SOL    HW310611   4.196   1.829   4.588
 2645SOL    MW410612   4.231   1.890   4.537
 2646SOL     OW10613   0.395   4.667   4.434
 2646SOL    HW210614   0.332   4.595   4.434
 2646SOL    HW310615   0.479   4.624   4.451
 2646SOL    MW410616   0.398   4.651   4.436
 2647SOL     OW10617   0.221   0.744   4.584
 2647SOL    HW210618   0.280   0.734   4.658
 2647SOL    HW310619   0.214   0.656   4.547
 2647SOL    MW410620   0.228   0.731   4.589
 2648SOL     OW10621   4.189   0.723   4.613
 2648SOL    HW210622   4.196   0.628   4.609
 2648SOL    HW310623   4.278   0.755   4.595
 2648SOL    MW410624   4.201   0.715   4.610
 2649SOL     OW10625   0.670   1.366   4.474
 2649SOL    HW210626   0.713   1.451   4.479
 2649SOL    HW310627   0.593   1.375   4.531
 2649SOL    MW410628   0.665   1.379   4.482
 2650SOL     OW10629   1.182   1.933   4.507
 2650SOL    HW210630   1.275   1.956   4.508
 2650SOL    HW310631   1.139   2.006   4.551
 2650SOL    MW410632   1.189   1.946   4.513
 2651SOL     OW10633   4.175   1.223   4.510
 2651SOL    HW210634   4.129   1.141   4.529
 2651SOL    HW310635   4.256   1.217   4.561
 2651SOL    MW410636   4.180   1.212   4.519
 2652SOL     OW10637   0.093   1.687   4.484
 2652SOL    HW210638   0.031   1.677   4.411
 2652SOL    HW310639   0.075   1.774   4.519
 2652SOL    MW410640   0.083   1.697   4.479
 2653SOL     OW10641   0.461   1.685   4.264
 2653SOL    HW210642   0.386   1.636   4.229
 2653SOL    HW310643   0.535   1.626   4.251
 2653SOL    MW410644   0.461   1.670   4.257
 2654SOL     OW10645   0.004   1.937   4.589
 2654SOL    HW210646   0.062   2.009   4.565
 2654SOL    HW310647   0.036   1.908   4.675
 2654SOL    MW410648   0.016   1.942   4.597
 2655SOL     OW10649   4.233   2.320   4.450
 2655SOL    HW210650   4.316   2.336   4.496
 2655SOL    HW310651   4.181   2.399   4.466
 2655SOL    MW410652   4.237   2.332   4.458
 2656SOL     OW10653   0.655   2.956   4.638
 2656SOL    HW210654   0.683   2.878   4.590
 2656SOL    HW310655   0.693   2.946   4.725
 2656SOL    MW410656   0.663   2.944   4.643
 2657SOL     OW10657   0.368   3.024   4.577
 2657SOL    HW210658   0.458   3.002   4.602
 2657SOL    HW310659   0.368   3.119   4.566
 2657SOL    MW410660   0.380   3.033   4.579
 2658SOL     OW10661   0.016   2.396   4.488
 2658SOL    HW210662  -0.020   2.424   4.404
 2658SOL    HW310663   0.083   2.462   4.509
 2658SOL    MW410664   0.020   2.408   4.480
 2659SOL     OW10665   4.072   3.490   4.679
 2659SOL    HW210666   4.051   3.401   4.653
 2659SOL    HW310667   4.009   3.511   4.748
 2659SOL    MW410668   4.061   3.481   4.685
 2660SOL     OW10669   0.433   3.284   4.515
 2660SOL    HW210670   0.517   3.312   4.552
 2660SOL    HW310671   0.372   3.354   4.538
 2660SOL    MW410672   0.436   3.297   4.523
 2661SOL     OW10673   4.316   3.855   4.678
 2661SOL    HW210674   4.269   3.902   4.608
 2661SOL    HW310675   4.319   3.764   4.648
 2661SOL    MW410676   4.310   3.849   4.665
 2662SOL     OW10677   4.471   0.046   4.476
 2662SOL    HW210678   4.389   0.006   4.506
 2662SOL    HW310679   4.485   0.120   4.536
 2662SOL    MW410680   4.462   0.051   4.488
 2663SOL     OW10681   3.484   0.291   4.651
 2663SOL    HW210682   3.569   0.320   4.618
 2663SOL    HW310683   3.432   0.273   4.572
 2663SOL    MW410684   3.488   0.292   4.636
 2664SOL     OW10685   3.912   3.594   4.883
 2664SOL    HW210686   3.833   3.597   4.828
 2664SOL    HW310687   3.878   3.583   4.972
 2664SOL    MW410688   3.897   3.593   4.887
 2665SOL     OW10689   3.738   3.883   4.625
 2665SOL    HW210690   3.821   3.840   4.605
 2665SOL    HW310691   3.761   3.950   4.689
 2665SOL    MW410692   3.752   3.886   4.631
 2666SOL     OW10693   0.615   4.511   4.486
 2666SOL    HW210694   0.652   4.461   4.414
 2666SOL    HW310695   0.548   4.453   4.524
 2666SOL    MW410696   0.611   4.497   4.482
 2667SOL     OW10697   3.967   0.711   4.781
 2667SOL    HW210698   3.904   0.773   4.743
 2667SOL    HW310699   4.050   0.732   4.738
 2667SOL    MW410700   3.970   0.722   4.770
 2668SOL     OW10701   1.133   0.844   4.572
 2668SOL    HW210702   1.077   0.906   4.526
 2668SOL    HW310703   1.080   0.764   4.579
 2668SOL    MW410704   1.119   0.841   4.567
 2669SOL     OW10705   0.634   0.342   4.557
 2669SOL    HW210706   0.663   0.252   4.545
 2669SOL    HW310707   0.710   0.387   4.594
 2669SOL    MW410708   0.648   0.336   4.560
 2670SOL     OW10709   0.909   0.988   4.462
 2670SOL    HW210710   0.908   0.966   4.368
 2670SOL    HW310711   0.824   0.957   4.494
 2670SOL    MW410712   0.898   0.981   4.454
 2671SOL     OW10713   0.409   0.964   4.500
 2671SOL    HW210714   0.446   0.937   4.416
 2671SOL    HW310715   0.343   0.897   4.520
 2671SOL    MW410716   0.405   0.952   4.491
 2672SOL     OW10717   2.135   1.169   4.532
 2672SOL    HW210718   2.111   1.204   4.446
 2672SOL    HW310719   2.228   1.192   4.542
 2672SOL    MW410720   2.144   1.177   4.522
 2673SOL     OW10721   0.357   1.642   4.538
 2673SOL    HW210722   0.264   1.653   4.521
 2673SOL    HW310723   0.399   1.650   4.452
 2673SOL    MW410724   0.351   1.645   4.524
 2674SOL     OW10725   1.487   1.091   4.551
 2674SOL    HW210726   1.484   1.003   4.512
 2674SOL    HW310727   1.401   1.128   4.532
 2674SOL    MW410728   1.475   1.084   4.543
 2675SOL     OW10729   0.841   1.595   4.504
 2675SOL    HW210730   0.781   1.662   4.536
 2675SOL    HW310731   0.928   1.629   4.525
 2675SOL    MW410732   0.845   1.609   4.511
 2676SOL     OW10733   0.641   2.082   4.490
 2676SOL    HW210734   0.712   2.145   4.499
 2676SOL    HW310735   0.675   2.002   4.530
 2676SOL    MW410736   0.655   2.080   4.496
 2677SOL     OW10737   1.102   1.683   4.566
 2677SOL    HW210738   1.172   1.618   4.564
 2677SOL    HW310739   1.145   1.765   4.538
 2677SOL    MW410740   1.117   1.685   4.562
 2678SOL     OW10741   0.405   2.140   4.646
 2678SOL    HW210742   0.486   2.128   4.596
 2678SOL    HW310743   0.426   2.208   4.709
 2678SOL    MW410744   0.419   2.147   4.648
 2679SOL     OW10745   0.884   2.625   4.706
 2679SOL    HW210746   0.935   2.655   4.631
 2679SOL    HW310747   0.808   2.583   4.667
 2679SOL    MW410748   0.881   2.623   4.691
 2680SOL     OW10749   0.658   2.511   4.587
 2680SOL    HW210750   0.581   2.484   4.638
 2680SOL    HW310751   0.691   2.429   4.549
 2680SOL    MW410752   0.652   2.496   4.589
 2681SOL     OW10753   0.789   3.155   4.480
 2681SOL    HW210754   0.766   3.233   4.531
 2681SOL    HW310755   0.750   3.082   4.529
 2681SOL    MW410756   0.780   3.156   4.493
 2682SOL     OW10757   0.702   3.359   4.628
 2682SOL    HW210758   0.712   3.451   4.605
 2682SOL    HW310759   0.677   3.359   4.720
 2682SOL    MW410760   0.700   3.371   4.637
 2683SOL     OW10761   1.261   0.059   4.532
 2683SOL    HW210762   1.253  -0.036   4.535
 2683SOL    HW310763   1.352   0.077   4.559
 2683SOL    MW410764   1.272   0.049   4.536
 2684SOL     OW10765   0.241   2.552   4.531
 2684SOL    HW210766   0.277   2.538   4.444
 2684SOL    HW310767   0.218   2.645   4.533
 2684SOL    MW410768   0.242   2.563   4.520
 2685SOL     OW10769   0.025   3.352   4.557
 2685SOL    HW210770  -0.046   3.414   4.575
 2685SOL    HW310771   0.009   3.324   4.467
 2685SOL    MW410772   0.014   3.357   4.547
 2686SOL     OW10773   1.306   3.416   4.539
 2686SOL    HW210774   1.380   3.369   4.499
 2686SOL    HW310775   1.251   3.347   4.576
 2686SOL    MW410776   1.309   3.401   4.538
 2687SOL     OW10777   0.111   4.218   4.532
 2687SOL    HW210778   0.018   4.242   4.532
 2687SOL    HW310779   0.112   4.123   4.535
 2687SOL    MW410780   0.099   4.209   4.532
 2688SOL     OW10781   0.091   3.949   4.573
 2688SOL    HW210782   0.156   3.881   4.590
 2688SOL    HW310783   0.010   3.916   4.612
 2688SOL    MW410784   0.089   3.936   4.580
 2689SOL     OW10785   0.177   4.498   4.468
 2689SOL    HW210786   0.116   4.571   4.484
 2689SOL    HW310787   0.131   4.421   4.501
 2689SOL    MW410788   0.163   4.498   4.475
 2690SOL     OW10789   0.362   0.271   4.541
 2690SOL    HW210790   0.456   0.291   4.540
 2690SOL    HW310791   0.357   0.177   4.521
 2690SOL    MW410792   0.374   0.261   4.538
 2691SOL     OW10793   1.220   4.424   4.489
 2691SOL    HW210794   1.313   4.407   4.497
 2691SOL    HW310795   1.178   4.354   4.540
 2691SOL    MW410796   1.226   4.412   4.497
 2692SOL     OW10797   0.621   0.611   4.419
 2692SOL    HW210798   0.647   0.587   4.331
 2692SOL    HW310799   0.612   0.528   4.465
 2692SOL    MW410800   0.623   0.597   4.414
 2693SOL     OW10801   1.413   0.820   4.461
 2693SOL    HW210802   1.391   0.807   4.369
 2693SOL    HW310803   1.328   0.829   4.505
 2693SOL    MW410804   1.399   0.820   4.455
 2694SOL     OW10805   1.763   0.988   4.667
 2694SOL    HW210806   1.740   0.934   4.742
 2694SOL    HW310807   1.681   1.031   4.642
 2694SOL    MW410808   1.749   0.987   4.674
 2695SOL     OW10809   0.265   1.213   4.451
 2695SOL    HW210810   0.320   1.135   4.453
 2695SOL    HW310811   0.307   1.273   4.512
 2695SOL    MW410812   0.277   1.210   4.460
 2696SOL     OW10813   0.958   1.865   4.728
 2696SOL    HW210814   1.013   1.805   4.678
 2696SOL    HW310815   0.998   1.951   4.716
 2696SOL    MW410816   0.970   1.869   4.720
 2697SOL     OW10817   0.973   1.272   4.477
 2697SOL    HW210818   0.895   1.327   4.486
 2697SOL    HW310819   0.939   1.183   4.468
 2697SOL    MW410820   0.958   1.268   4.477
 2698SOL     OW10821   1.888   1.268   4.627
 2698SOL    HW210822   1.866   1.186   4.672
 2698SOL    HW310823   1.976   1.253   4.593
 2698SOL    MW410824   1.896   1.255   4.629
 2699SOL     OW10825   1.264   1.244   4.481
 2699SOL    HW210826   1.171   1.246   4.504
 2699SOL    HW310827   1.297   1.331   4.505
 2699SOL    MW410828   1.256   1.256   4.487
 2700SOL     OW10829   1.033   2.388   4.695
 2700SOL    HW210830   0.996   2.473   4.720
 2700SOL    HW310831   1.106   2.410   4.637
 2700SOL    MW410832   1.037   2.402   4.690
 2701SOL     OW10833   1.675   2.445   4.869
 2701SOL    HW210834   1.742   2.509   4.896
 2701SOL    HW310835   1.604   2.499   4.833
 2701SOL    MW410836   1.674   2.461   4.868
 2702SOL     OW10837   1.440   2.905   4.673
 2702SOL    HW210838   1.453   2.857   4.592
 2702SOL    HW310839   1.517   2.961   4.681
 2702SOL    MW410840   1.452   2.906   4.664
 2703SOL     OW10841   1.572   3.309   4.471
 2703SOL    HW210842   1.598   3.234   4.524
 2703SOL    HW310843   1.627   3.304   4.393
 2703SOL    MW410844   1.582   3.299   4.468
 2704SOL     OW10845   0.693   2.752   4.461
 2704SOL    HW210846   0.787   2.737   4.473
 2704SOL    HW310847   0.652   2.671   4.491
 2704SOL    MW410848   0.700   2.739   4.466
 2705SOL     OW10849   0.442   4.336   4.589
 2705SOL    HW210850   0.487   4.257   4.561
 2705SOL    HW310851   0.354   4.307   4.614
 2705SOL    MW410852   0.436   4.322   4.588
 2706SOL     OW10853   0.983   2.768   4.487
 2706SOL    HW210854   1.022   2.771   4.399
 2706SOL    HW310855   0.995   2.856   4.522
 2706SOL    MW410856   0.989   2.780   4.480
 2707SOL     OW10857   0.849   2.868   4.833
 2707SOL    HW210858   0.852   2.775   4.811
 2707SOL    HW310859   0.906   2.911   4.769
 2707SOL    MW410860   0.857   2.862   4.822
 2708SOL     OW10861   1.617   3.603   4.427
 2708SOL    HW210862   1.712   3.600   4.430
 2708SOL    HW310863   1.588   3.528   4.479
 2708SOL    MW410864   1.625   3.593   4.434
 2709SOL     OW10865   0.550   3.825   4.539
 2709SOL    HW210866   0.559   3.920   4.544
 2709SOL    HW310867   0.462   3.808   4.573
 2709SOL    MW410868   0.540   3.835   4.544
 2710SOL     OW10869   0.292   3.760   4.683
 2710SOL    HW210870   0.256   3.750   4.770
 2710SOL    HW310871   0.270   3.679   4.638
 2710SOL    MW410872   0.285   3.748   4.688
 2711SOL     OW10873   0.737   0.093   4.478
 2711SOL    HW210874   0.775   0.092   4.390
 2711SOL    HW310875   0.710   0.003   4.493
 2711SOL    MW410876   0.738   0.081   4.468
 2712SOL     OW10877   0.567   4.105   4.508
 2712SOL    HW210878   0.654   4.143   4.494
 2712SOL    HW310879   0.538   4.079   4.420
 2712SOL    MW410880   0.575   4.107   4.494
 2713SOL     OW10881   2.234   3.917   4.532
 2713SOL    HW210882   2.221   3.925   4.438
 2713SOL    HW310883   2.147   3.900   4.567
 2713SOL    MW410884   2.221   3.916   4.524
 2714SOL     OW10885   1.809   4.487   4.586
 2714SOL    HW210886   1.861   4.417   4.548
 2714SOL    HW310887   1.723   4.448   4.602
 2714SOL    MW410888   1.804   4.473   4.583
 2715SOL     OW10889   1.479   4.343   4.488
 2715SOL    HW210890   1.506   4.256   4.516
 2715SOL    HW310891   1.531   4.361   4.409
 2715SOL    MW410892   1.489   4.334   4.481
 2716SOL     OW10893   0.886   0.647   4.577
 2716SOL    HW210894   0.832   0.627   4.501
 2716SOL    HW310895   0.831   0.707   4.629
 2716SOL    MW410896   0.871   0.653   4.574
 2717SOL     OW10897   1.786   0.089   4.487
 2717SOL    HW210898   1.808   0.002   4.521
 2717SOL    HW310899   1.708   0.115   4.538
 2717SOL    MW410900   1.778   0.080   4.498
 2718SOL     OW10901   1.080   0.465   4.467
 2718SOL    HW210902   1.016   0.518   4.514
 2718SOL    HW310903   1.059   0.375   4.490
 2718SOL    MW410904   1.069   0.460   4.476
 2719SOL     OW10905   1.788   1.710   4.516
 2719SOL    HW210906   1.815   1.649   4.585
 2719SOL    HW310907   1.811   1.666   4.435
 2719SOL    MW410908   1.795   1.696   4.515
 2720SOL     OW10909   0.682   0.847   4.569
 2720SOL    HW210910   0.606   0.905   4.560
 2720SOL    HW310911   0.661   0.771   4.515
 2720SOL    MW410912   0.669   0.845   4.561
 2721SOL     OW10913   1.571   0.390   4.472
 2721SOL    HW210914   1.635   0.447   4.516
 2721SOL    HW310915   1.487   0.431   4.490
 2721SOL    MW410916   1.569   0.403   4.480
 2722SOL     OW10917   1.661   1.296   4.445
 2722SOL    HW210918   1.611   1.237   4.501
 2722SOL    HW310919   1.750   1.291   4.479
 2722SOL    MW410920   1.666   1.288   4.457
 2723SOL     OW10921   1.333   1.515   4.529
 2723SOL    HW210922   1.422   1.524   4.564
 2723SOL    HW310923   1.339   1.548   4.440
 2723SOL    MW410924   1.346   1.521   4.522
 2724SOL     OW10925   1.468   2.561   4.724
 2724SOL    HW210926   1.413   2.626   4.768
 2724SOL    HW310927   1.405   2.496   4.691
 2724SOL    MW410928   1.452   2.561   4.726
 2725SOL     OW10929   2.290   2.598   4.248
 2725SOL    HW210930   2.227   2.552   4.193
 2725SOL    HW310931   2.244   2.678   4.275
 2725SOL    MW410932   2.275   2.603   4.244
 2726SOL     OW10933   0.819   2.301   4.532
 2726SOL    HW210934   0.893   2.315   4.591
 2726SOL    HW310935   0.844   2.345   4.451
 2726SOL    MW410936   0.832   2.309   4.529
 2727SOL     OW10937   1.454   3.817   4.454
 2727SOL    HW210938   1.522   3.753   4.436
 2727SOL    HW310939   1.377   3.765   4.477
 2727SOL    MW410940   1.453   3.802   4.454
 2728SOL     OW10941   1.342   2.391   4.283
 2728SOL    HW210942   1.353   2.483   4.261
 2728SOL    HW310943   1.420   2.348   4.247
 2728SOL    MW410944   1.353   2.397   4.275
 2729SOL     OW10945   1.294   2.387   4.568
 2729SOL    HW210946   1.309   2.383   4.474
 2729SOL    HW310947   1.335   2.307   4.602
 2729SOL    MW410948   1.302   2.376   4.560
 2730SOL     OW10949   1.252   3.081   4.588
 2730SOL    HW210950   1.322   3.019   4.610
 2730SOL    HW310951   1.288   3.133   4.517
 2730SOL    MW410952   1.266   3.080   4.582
 2731SOL     OW10953   0.997   3.016   4.619
 2731SOL    HW210954   1.092   3.021   4.632
 2731SOL    HW310955   0.976   3.094   4.568
 2731SOL    MW410956   1.007   3.027   4.614
 2732SOL     OW10957   0.759   3.620   4.547
 2732SOL    HW210958   0.681   3.670   4.569
 2732SOL    HW310959   0.823   3.686   4.521
 2732SOL    MW410960   0.757   3.635   4.546
 2733SOL     OW10961   2.279   3.361   4.592
 2733SOL    HW210962   2.184   3.366   4.581
 2733SOL    HW310963   2.306   3.293   4.530
 2733SOL    MW410964   2.270   3.353   4.582
 2734SOL     OW10965   1.995   3.345   4.535
 2734SOL    HW210966   1.946   3.284   4.589
 2734SOL    HW310967   2.000   3.302   4.449
 2734SOL    MW410968   1.989   3.331   4.531
 2735SOL     OW10969   2.380   3.148   4.474
 2735SOL    HW210970   2.340   3.061   4.463
 2735SOL    HW310971   2.439   3.137   4.548
 2735SOL    MW410972   2.382   3.135   4.482
 2736SOL     OW10973   0.963   3.808   4.517
 2736SOL    HW210974   1.041   3.757   4.496
 2736SOL    HW310975   0.960   3.877   4.451
 2736SOL    MW410976   0.973   3.810   4.505
 2737SOL     OW10977   1.833   4.087   4.458
 2737SOL    HW210978   1.826   4.040   4.375
 2737SOL    HW310979   1.872   4.024   4.518
 2737SOL    MW410980   1.837   4.072   4.455
 2738SOL     OW10981   1.950   0.318   4.469
 2738SOL    HW210982   1.895   0.242   4.486
 2738SOL    HW310983   2.040   0.286   4.479
 2738SOL    MW410984   1.955   0.304   4.472
 2739SOL     OW10985   1.002   0.197   4.501
 2739SOL    HW210986   0.927   0.138   4.499
 2739SOL    HW310987   1.078   0.140   4.510
 2739SOL    MW410988   1.002   0.182   4.502
 2740SOL     OW10989   1.547   0.145   4.621
 2740SOL    HW210990   1.556   0.157   4.716
 2740SOL    HW310991   1.552   0.233   4.585
 2740SOL    MW410992   1.549   0.158   4.629
 2741SOL     OW10993   2.458   0.019   4.615
 2741SOL    HW210994   2.451  -0.075   4.596
 2741SOL    HW310995   2.368   0.050   4.616
 2741SOL    MW410996   2.445   0.011   4.612
 2742SOL     OW10997   1.843   0.783   4.507
 2742SOL    HW210998   1.811   0.860   4.553
 2742SOL    HW310999   1.829   0.803   4.414
 2742SOL    MW411000   1.837   0.796   4.501
 2743SOL     OW11001   1.345   0.534   4.494
 2743SOL    HW211002   1.354   0.629   4.493
 2743SOL    HW311003   1.250   0.519   4.498
 2743SOL    MW411004   1.334   0.545   4.494
 2744SOL     OW11005   2.132   1.650   4.711
 2744SOL    HW211006   2.205   1.608   4.758
 2744SOL    HW311007   2.174   1.718   4.659
 2744SOL    MW411008   2.147   1.653   4.711
 2745SOL     OW11009   0.689   1.835   4.618
 2745SOL    HW211010   0.764   1.844   4.677
 2745SOL    HW311011   0.616   1.815   4.676
 2745SOL    MW411012   0.689   1.833   4.634
 2746SOL     OW11013   1.595   1.491   4.635
 2746SOL    HW211014   1.622   1.434   4.563
 2746SOL    HW311015   1.674   1.538   4.660
 2746SOL    MW411016   1.609   1.489   4.629
 2747SOL     OW11017   1.097   2.109   4.681
 2747SOL    HW211018   1.179   2.109   4.731
 2747SOL    HW311019   1.073   2.201   4.676
 2747SOL    MW411020   1.105   2.121   4.687
 2748SOL     OW11021   1.465   1.904   4.527
 2748SOL    HW211022   1.534   1.937   4.469
 2748SOL    HW311023   1.497   1.819   4.556
 2748SOL    MW411024   1.478   1.897   4.523
 2749SOL     OW11025   2.076   2.452   4.130
 2749SOL    HW211026   2.065   2.410   4.044
 2749SOL    HW311027   2.078   2.380   4.192
 2749SOL    MW411028   2.075   2.437   4.127
 2750SOL     OW11029   1.432   2.159   4.628
 2750SOL    HW211030   1.442   2.066   4.606
 2750SOL    HW311031   1.521   2.194   4.627
 2750SOL    MW411032   1.445   2.151   4.625
 2751SOL     OW11033   2.825   3.275   4.684
 2751SOL    HW211034   2.857   3.255   4.771
 2751SOL    HW311035   2.856   3.203   4.629
 2751SOL    MW411036   2.833   3.263   4.688
 2752SOL     OW11037   1.701   3.099   4.613
 2752SOL    HW211038   1.720   3.051   4.532
 2752SOL    HW311039   1.785   3.104   4.658
 2752SOL    MW411040   1.714   3.093   4.608
 2753SOL     OW11041   1.955   3.881   4.672
 2753SOL    HW211042   1.968   3.875   4.766
 2753SOL    HW311043   1.958   3.791   4.641
 2753SOL    MW411044   1.957   3.868   4.680
 2754SOL     OW11045   2.693   2.849   4.701
 2754SOL    HW211046   2.619   2.804   4.661
 2754SOL    HW311047   2.769   2.815   4.654
 2754SOL    MW411048   2.693   2.839   4.690
 2755SOL     OW11049   2.316   2.743   4.857
 2755SOL    HW211050   2.393   2.748   4.914
 2755SOL    HW311051   2.303   2.833   4.827
 2755SOL    MW411052   2.325   2.756   4.860
 2756SOL     OW11053   2.775   3.890   4.466
 2756SOL    HW211054   2.758   3.921   4.377
 2756SOL    HW311055   2.688   3.878   4.504
 2756SOL    MW411056   2.761   3.893   4.460
 2757SOL     OW11057   2.499   3.843   4.552
 2757SOL    HW211058   2.502   3.747   4.547
 2757SOL    HW311059   2.408   3.865   4.535
 2757SOL    MW411060   2.488   3.833   4.549
 2758SOL     OW11061   2.505   3.558   4.527
 2758SOL    HW211062   2.436   3.505   4.566
 2758SOL    HW311063   2.471   3.582   4.441
 2758SOL    MW411064   2.491   3.554   4.520
 2759SOL     OW11065   1.888   3.599   4.510
 2759SOL    HW211066   1.908   3.506   4.519
 2759SOL    HW311067   1.942   3.628   4.437
 2759SOL    MW411068   1.898   3.591   4.502
 2760SOL     OW11069   2.009   4.306   4.486
 2760SOL    HW211070   1.952   4.230   4.478
 2760SOL    HW311071   2.088   4.272   4.528
 2760SOL    MW411072   2.012   4.291   4.490
 2761SOL     OW11073   1.203   3.671   4.501
 2761SOL    HW211074   1.243   3.592   4.539
 2761SOL    HW311075   1.179   3.645   4.412
 2761SOL    MW411076   1.205   3.657   4.494
 2762SOL     OW11077   2.222   0.240   4.508
 2762SOL    HW211078   2.254   0.184   4.437
 2762SOL    HW311079   2.282   0.315   4.507
 2762SOL    MW411080   2.234   0.243   4.498
 2763SOL     OW11081   2.360   0.750   4.508
 2763SOL    HW211082   2.408   0.812   4.563
 2763SOL    HW311083   2.272   0.788   4.501
 2763SOL    MW411084   2.355   0.763   4.514
 2764SOL     OW11085   1.875   1.533   4.713
 2764SOL    HW211086   1.965   1.566   4.716
 2764SOL    HW311087   1.885   1.440   4.691
 2764SOL    MW411088   1.889   1.525   4.711
 2765SOL     OW11089   2.700   0.021   4.461
 2765SOL    HW211090   2.616   0.011   4.506
 2765SOL    HW311091   2.678   0.011   4.368
 2765SOL    MW411092   2.686   0.018   4.455
 2766SOL     OW11093   2.922   0.678   4.327
 2766SOL    HW211094   2.936   0.589   4.295
 2766SOL    HW311095   2.979   0.733   4.271
 2766SOL    MW411096   2.932   0.674   4.315
 2767SOL     OW11097   3.368   0.925   4.434
 2767SOL    HW211098   3.291   0.934   4.489
 2767SOL    HW311099   3.438   0.968   4.483
 2767SOL    MW411100   3.368   0.932   4.448
 2768SOL     OW11101   2.111   0.893   4.462
 2768SOL    HW211102   2.109   0.989   4.463
 2768SOL    HW311103   2.021   0.867   4.484
 2768SOL    MW411104   2.099   0.902   4.465
 2769SOL     OW11105   2.595   1.420   4.586
 2769SOL    HW211106   2.576   1.475   4.662
 2769SOL    HW311107   2.683   1.444   4.559
 2769SOL    MW411108   2.604   1.430   4.592
 2770SOL     OW11109   2.534   1.711   4.648
 2770SOL    HW211110   2.613   1.700   4.596
 2770SOL    HW311111   2.547   1.794   4.694
 2770SOL    MW411112   2.546   1.721   4.647
 2771SOL     OW11113   2.297   1.810   4.546
 2771SOL    HW211114   2.375   1.760   4.569
 2771SOL    HW311115   2.275   1.781   4.458
 2771SOL    MW411116   2.304   1.800   4.538
 2772SOL     OW11117   2.289   2.292   4.684
 2772SOL    HW211118   2.305   2.359   4.618
 2772SOL    HW311119   2.230   2.333   4.747
 2772SOL    MW411120   2.283   2.306   4.684
 2773SOL     OW11121   2.374   2.074   4.521
 2773SOL    HW211122   2.329   1.993   4.546
 2773SOL    HW311123   2.337   2.141   4.579
 2773SOL    MW411124   2.363   2.072   4.532
 2774SOL     OW11125   2.607   2.398   4.413
 2774SOL    HW211126   2.531   2.403   4.471
 2774SOL    HW311127   2.574   2.355   4.334
 2774SOL    MW411128   2.593   2.393   4.410
 2775SOL     OW11129   1.597   2.686   4.510
 2775SOL    HW211130   1.650   2.619   4.466
 2775SOL    HW311131   1.558   2.640   4.584
 2775SOL    MW411132   1.599   2.671   4.514
 2776SOL     OW11133   2.227   2.980   4.759
 2776SOL    HW211134   2.265   3.065   4.781
 2776SOL    HW311135   2.219   2.982   4.663
 2776SOL    MW411136   2.231   2.992   4.749
 2777SOL     OW11137   2.751   3.433   4.475
 2777SOL    HW211138   2.769   3.373   4.547
 2777SOL    HW311139   2.665   3.469   4.495
 2777SOL    MW411140   2.742   3.430   4.487
 2778SOL     OW11141   2.355   3.236   4.834
 2778SOL    HW211142   2.443   3.209   4.805
 2778SOL    HW311143   2.324   3.293   4.764
 2778SOL    MW411144   2.363   3.240   4.821
 2779SOL     OW11145   1.567   4.089   4.551
 2779SOL    HW211146   1.536   3.999   4.546
 2779SOL    HW311147   1.660   4.083   4.528
 2779SOL    MW411148   1.575   4.077   4.547
 2780SOL     OW11149   2.754   4.457   4.589
 2780SOL    HW211150   2.665   4.420   4.584
 2780SOL    HW311151   2.755   4.525   4.522
 2780SOL    MW411152   2.742   4.461   4.579
 2781SOL     OW11153   1.982   3.119   4.695
 2781SOL    HW211154   2.011   3.078   4.613
 2781SOL    HW311155   2.042   3.084   4.761
 2781SOL    MW411156   1.994   3.109   4.693
 2782SOL     OW11157   3.275   3.931   4.587
 2782SOL    HW211158   3.194   3.964   4.548
 2782SOL    HW311159   3.256   3.840   4.608
 2782SOL    MW411160   3.262   3.923   4.584
 2783SOL     OW11161   3.051   4.038   4.431
 2783SOL    HW211162   2.972   3.988   4.452
 2783SOL    HW311163   3.029   4.129   4.455
 2783SOL    MW411164   3.037   4.044   4.437
 2784SOL     OW11165   2.235   4.189   4.582
 2784SOL    HW211166   2.218   4.097   4.562
 2784SOL    HW311167   2.273   4.189   4.670
 2784SOL    MW411168   2.238   4.177   4.591
 2785SOL     OW11169   2.474   4.417   4.538
 2785SOL    HW211170   2.407   4.361   4.579
 2785SOL    HW311171   2.458   4.409   4.444
 2785SOL    MW411172   2.463   4.409   4.531
 2786SOL     OW11173   2.920   0.380   4.224
 2786SOL    HW211174   2.837   0.371   4.177
 2786SOL    HW311175   2.914   0.318   4.297
 2786SOL    MW411176   2.909   0.371   4.227
 2787SOL     OW11177   2.972   0.072   4.909
 2787SOL    HW211178   2.915   0.005   4.872
 2787SOL    HW311179   2.964   0.062   5.004
 2787SOL    MW411180   2.964   0.062   4.917
 2788SOL     OW11181   2.569   0.070   4.858
 2788SOL    HW211182   2.630   0.144   4.857
 2788SOL    HW311183   2.536   0.065   4.769
 2788SOL    MW411184   2.573   0.079   4.846
 2789SOL     OW11185   2.875   1.002   4.564
 2789SOL    HW211186   2.965   0.980   4.589
 2789SOL    HW311187   2.838   0.920   4.532
 2789SOL    MW411188   2.882   0.988   4.563
 2790SOL     OW11189   3.142   0.376   4.632
 2790SOL    HW211190   3.194   0.348   4.556
 2790SOL    HW311191   3.200   0.437   4.678
 2790SOL    MW411192   3.157   0.381   4.628
 2791SOL     OW11193   1.782   0.525   4.587
 2791SOL    HW211194   1.846   0.468   4.543
 2791SOL    HW311195   1.805   0.613   4.557
 2791SOL    MW411196   1.794   0.529   4.577
 2792SOL     OW11197   2.571   0.964   4.525
 2792SOL    HW211198   2.588   0.905   4.451
 2792SOL    HW311199   2.655   1.006   4.542
 2792SOL    MW411200   2.584   0.962   4.517
 2793SOL     OW11201   3.110   1.440   4.587
 2793SOL    HW211202   3.028   1.398   4.562
 2793SOL    HW311203   3.170   1.419   4.516
 2793SOL    MW411204   3.107   1.432   4.575
 2794SOL     OW11205   3.035   1.681   4.484
 2794SOL    HW211206   2.940   1.682   4.482
 2794SOL    HW311207   3.057   1.598   4.526
 2794SOL    MW411208   3.026   1.670   4.489
 2795SOL     OW11209   2.749   1.732   4.460
 2795SOL    HW211210   2.729   1.826   4.467
 2795SOL    HW311211   2.712   1.706   4.375
 2795SOL    MW411212   2.741   1.741   4.450
 2796SOL     OW11213   2.638   1.989   4.509
 2796SOL    HW211214   2.690   2.066   4.483
 2796SOL    HW311215   2.550   2.023   4.522
 2796SOL    MW411216   2.633   2.004   4.507
 2797SOL     OW11217   2.805   2.206   4.471
 2797SOL    HW211218   2.740   2.277   4.476
 2797SOL    HW311219   2.812   2.186   4.378
 2797SOL    MW411220   2.797   2.213   4.460
 2798SOL     OW11221   3.074   2.336   4.485
 2798SOL    HW211222   2.987   2.297   4.488
 2798SOL    HW311223   3.070   2.397   4.411
 2798SOL    MW411224   3.062   2.339   4.476
 2799SOL     OW11225   2.455   2.732   4.611
 2799SOL    HW211226   2.399   2.737   4.688
 2799SOL    HW311227   2.410   2.784   4.545
 2799SOL    MW411228   2.442   2.739   4.612
 2800SOL     OW11229   3.530   3.421   4.579
 2800SOL    HW211230   3.436   3.415   4.598
 2800SOL    HW311231   3.556   3.331   4.558
 2800SOL    MW411232   3.521   3.408   4.579
 2801SOL     OW11233   2.722   2.670   4.359
 2801SOL    HW211234   2.689   2.590   4.401
 2801SOL    HW311235   2.644   2.724   4.348
 2801SOL    MW411236   2.707   2.666   4.363
 2802SOL     OW11237   2.562   3.112   4.702
 2802SOL    HW211238   2.632   3.162   4.659
 2802SOL    HW311239   2.597   3.023   4.707
 2802SOL    MW411240   2.576   3.107   4.697
 2803SOL     OW11241   2.942   3.071   4.518
 2803SOL    HW211242   3.028   3.079   4.560
 2803SOL    HW311243   2.919   2.979   4.527
 2803SOL    MW411244   2.951   3.060   4.524
 2804SOL     OW11245   2.696   0.454   4.613
 2804SOL    HW211246   2.704   0.398   4.690
 2804SOL    HW311247   2.770   0.514   4.619
 2804SOL    MW411248   2.707   0.455   4.624
 2805SOL     OW11249   3.794   4.114   4.787
 2805SOL    HW211250   3.754   4.076   4.865
 2805SOL    HW311251   3.723   4.162   4.744
 2805SOL    MW411252   3.779   4.115   4.792
 2806SOL     OW11253   3.970   3.724   4.519
 2806SOL    HW211254   3.996   3.658   4.583
 2806SOL    HW311255   3.917   3.676   4.455
 2806SOL    MW411256   3.967   3.709   4.519
 2807SOL     OW11257   2.946   3.650   4.486
 2807SOL    HW211258   2.891   3.573   4.499
 2807SOL    HW311259   2.884   3.723   4.487
 2807SOL    MW411260   2.931   3.650   4.488
 2808SOL     OW11261   2.998   4.340   4.522
 2808SOL    HW211262   2.912   4.366   4.555
 2808SOL    HW311263   3.050   4.420   4.525
 2808SOL    MW411264   2.994   4.354   4.527
 2809SOL     OW11265   3.315   0.266   4.425
 2809SOL    HW211266   3.347   0.329   4.361
 2809SOL    HW311267   3.258   0.208   4.376
 2809SOL    MW411268   3.312   0.266   4.410
 2810SOL     OW11269   3.137   0.737   4.738
 2810SOL    HW211270   3.194   0.675   4.782
 2810SOL    HW311271   3.054   0.691   4.728
 2810SOL    MW411272   3.133   0.723   4.742
 2811SOL     OW11273   2.417   0.451   4.499
 2811SOL    HW211274   2.498   0.440   4.549
 2811SOL    HW311275   2.388   0.540   4.519
 2811SOL    MW411276   2.424   0.461   4.508
 2812SOL     OW11277   2.411   1.217   4.531
 2812SOL    HW211278   2.460   1.144   4.566
 2812SOL    HW311279   2.464   1.294   4.549
 2812SOL    MW411280   2.424   1.218   4.538
 2813SOL     OW11281   2.774   4.552   4.859
 2813SOL    HW211282   2.770   4.508   4.774
 2813SOL    HW311283   2.697   4.608   4.861
 2813SOL    MW411284   2.763   4.553   4.848
 2814SOL     OW11285   2.788   0.232   4.768
 2814SOL    HW211286   2.839   0.224   4.687
 2814SOL    HW311287   2.845   0.195   4.836
 2814SOL    MW411288   2.802   0.226   4.766
 2815SOL     OW11289   3.350   1.385   4.757
 2815SOL    HW211290   3.264   1.409   4.722
 2815SOL    HW311291   3.346   1.412   4.849
 2815SOL    MW411292   3.338   1.392   4.765
 2816SOL     OW11293   2.874   1.298   4.515
 2816SOL    HW211294   2.869   1.204   4.535
 2816SOL    HW311295   2.864   1.303   4.420
 2816SOL    MW411296   2.872   1.286   4.505
 2817SOL     OW11297   4.039   0.956   4.498
 2817SOL    HW211298   4.014   0.919   4.413
 2817SOL    HW311299   4.104   0.895   4.532
 2817SOL    MW411300   4.044   0.943   4.491
 2818SOL     OW11301   3.525   1.414   4.532
 2818SOL    HW211302   3.538   1.507   4.516
 2818SOL    HW311303   3.489   1.409   4.620
 2818SOL    MW411304   3.522   1.426   4.541
 2819SOL     OW11305   3.273   1.857   4.556
 2819SOL    HW211306   3.255   1.949   4.536
 2819SOL    HW311307   3.190   1.822   4.589
 2819SOL    MW411308   3.259   1.864   4.557
 2820SOL     OW11309   3.273   2.114   4.484
 2820SOL    HW211310   3.220   2.193   4.494
 2820SOL    HW311311   3.295   2.112   4.391
 2820SOL    MW411312   3.269   2.125   4.473
 2821SOL     OW11313   3.511   1.699   4.520
 2821SOL    HW211314   3.431   1.750   4.534
 2821SOL    HW311315   3.535   1.716   4.429
 2821SOL    MW411316   3.503   1.708   4.510
 2822SOL     OW11317   2.908   2.771   4.542
 2822SOL    HW211318   2.859   2.731   4.469
 2822SOL    HW311319   2.961   2.700   4.577
 2822SOL    MW411320   2.909   2.756   4.537
 2823SOL     OW11321   3.335   2.686   4.594
 2823SOL    HW211322   3.240   2.669   4.594
 2823SOL    HW311323   3.344   2.771   4.552
 2823SOL    MW411324   3.323   2.695   4.588
 2824SOL     OW11325   3.074   2.559   4.663
 2824SOL    HW211326   3.075   2.486   4.601
 2824SOL    HW311327   3.126   2.528   4.737
 2824SOL    MW411328   3.081   2.545   4.664
 2825SOL     OW11329   3.770   3.090   4.587
 2825SOL    HW211330   3.854   3.135   4.599
 2825SOL    HW311331   3.794   3.005   4.549
 2825SOL    MW411332   3.785   3.084   4.583
 2826SOL     OW11333   3.190   3.082   4.630
 2826SOL    HW211334   3.249   3.041   4.567
 2826SOL    HW311335   3.202   3.033   4.711
 2826SOL    MW411336   3.199   3.070   4.633
 2827SOL     OW11337   3.540   3.167   4.457
 2827SOL    HW211338   3.559   3.200   4.369
 2827SOL    HW311339   3.626   3.146   4.494
 2827SOL    MW411340   3.554   3.169   4.451
 2828SOL     OW11341   3.849   2.845   4.488
 2828SOL    HW211342   3.943   2.848   4.507
 2828SOL    HW311343   3.818   2.766   4.532
 2828SOL    MW411344   3.857   2.835   4.496
 2829SOL     OW11345   3.696   3.616   4.705
 2829SOL    HW211346   3.630   3.561   4.662
 2829SOL    HW311347   3.684   3.702   4.666
 2829SOL    MW411348   3.686   3.620   4.694
 2830SOL     OW11349   3.625   4.273   4.642
 2830SOL    HW211350   3.694   4.306   4.585
 2830SOL    HW311351   3.586   4.201   4.594
 2830SOL    MW411352   3.629   4.268   4.628
 2831SOL     OW11353   3.194   4.548   4.545
 2831SOL    HW211354   3.190   4.618   4.610
 2831SOL    HW311355   3.280   4.508   4.558
 2831SOL    MW411356   3.205   4.552   4.555
 2832SOL     OW11357   3.204   0.099   4.720
 2832SOL    HW211358   3.153   0.088   4.800
 2832SOL    HW311359   3.181   0.187   4.689
 2832SOL    MW411360   3.194   0.109   4.726
 2833SOL     OW11361   3.469   4.463   4.520
 2833SOL    HW211362   3.521   4.397   4.566
 2833SOL    HW311363   3.486   4.545   4.567
 2833SOL    MW411364   3.478   4.465   4.532
 2834SOL     OW11365   3.553   4.044   4.516
 2834SOL    HW211366   3.614   3.973   4.535
 2834SOL    HW311367   3.470   4.016   4.555
 2834SOL    MW411368   3.550   4.031   4.523
 2835SOL     OW11369   3.728   0.045   4.542
 2835SOL    HW211370   3.664   0.026   4.610
 2835SOL    HW311371   3.675   0.065   4.465
 2835SOL    MW411372   3.713   0.045   4.541
 2836SOL     OW11373   3.356   1.108   4.687
 2836SOL    HW211374   3.445   1.087   4.656
 2836SOL    HW311375   3.362   1.199   4.716
 2836SOL    MW411376   3.369   1.117   4.687
 2837SOL     OW11377   2.858   0.263   4.484
 2837SOL    HW211378   2.804   0.336   4.514
 2837SOL    HW311379   2.796   0.191   4.473
 2837SOL    MW411380   2.842   0.263   4.487
 2838SOL     OW11381   4.179   1.641   4.659
 2838SOL    HW211382   4.111   1.574   4.666
 2838SOL    HW311383   4.260   1.595   4.679
 2838SOL    MW411384   4.181   1.626   4.663
 2839SOL     OW11385   3.793   0.868   4.626
 2839SOL    HW211386   3.757   0.809   4.560
 2839SOL    HW311387   3.871   0.906   4.585
 2839SOL    MW411388   3.799   0.865   4.612
 2840SOL     OW11389   4.465   0.866   4.559
 2840SOL    HW211390   4.466   0.872   4.464
 2840SOL    HW311391   4.541   0.812   4.581
 2840SOL    MW411392   4.475   0.860   4.550
 2841SOL     OW11393   4.170   0.420   4.551
 2841SOL    HW211394   4.202   0.440   4.463
 2841SOL    HW311395   4.150   0.326   4.548
 2841SOL    MW411396   4.171   0.410   4.539
 2842SOL     OW11397   3.541   1.691   4.221
 2842SOL    HW211398   3.615   1.632   4.204
 2842SOL    HW311399   3.465   1.643   4.190
 2842SOL    MW411400   3.541   1.677   4.214
 2843SOL     OW11401   3.905   1.585   4.390
 2843SOL    HW211402   3.976   1.635   4.349
 2843SOL    HW311403   3.857   1.650   4.442
 2843SOL    MW411404   3.908   1.600   4.392
 2844SOL     OW11405   3.507   2.215   4.597
 2844SOL    HW211406   3.420   2.178   4.583
 2844SOL    HW311407   3.566   2.141   4.584
 2844SOL    MW411408   3.503   2.200   4.594
 2845SOL     OW11409   3.773   1.756   4.576
 2845SOL    HW211410   3.680   1.738   4.591
 2845SOL    HW311411   3.814   1.742   4.662
 2845SOL    MW411412   3.766   1.752   4.589
 2846SOL     OW11413   0.139   1.858   4.812
 2846SOL    HW211414   0.229   1.843   4.784
 2846SOL    HW311415   0.128   1.800   4.888
 2846SOL    MW411416   0.149   1.848   4.819
 2847SOL     OW11417   3.759   2.051   4.525
 2847SOL    HW211418   3.844   2.092   4.537
 2847SOL    HW311419   3.777   1.957   4.531
 2847SOL    MW411420   3.773   2.044   4.527
 2848SOL     OW11421   3.803   2.607   4.606
 2848SOL    HW211422   3.803   2.562   4.690
 2848SOL    HW311423   3.722   2.578   4.563
 2848SOL    MW411424   3.792   2.597   4.611
 2849SOL     OW11425   4.051   2.539   4.466
 2849SOL    HW211426   3.970   2.549   4.515
 2849SOL    HW311427   4.090   2.627   4.464
 2849SOL    MW411428   4.046   2.552   4.472
 2850SOL     OW11429   4.306   3.139   4.570
 2850SOL    HW211430   4.378   3.199   4.592
 2850SOL    HW311431   4.350   3.058   4.545
 2850SOL    MW411432   4.321   3.137   4.569
 2851SOL     OW11433   3.245   3.350   4.531
 2851SOL    HW211434   3.229   3.331   4.438
 2851SOL    HW311435   3.238   3.265   4.574
 2851SOL    MW411436   3.242   3.336   4.524
 2852SOL     OW11437   4.029   3.205   4.582
 2852SOL    HW211438   4.115   3.168   4.602
 2852SOL    HW311439   4.032   3.222   4.488
 2852SOL    MW411440   4.041   3.203   4.572
 2853SOL     OW11441   3.216   3.617   4.461
 2853SOL    HW211442   3.124   3.638   4.473
 2853SOL    HW311443   3.227   3.531   4.501
 2853SOL    MW411444   3.206   3.609   4.468
 2854SOL     OW11445   4.321   3.593   4.579
 2854SOL    HW211446   4.314   3.599   4.483
 2854SOL    HW311447   4.242   3.544   4.605
 2854SOL    MW411448   4.309   3.587   4.569
 2855SOL     OW11449   0.187   2.821   4.519
 2855SOL    HW211450   0.180   2.822   4.424
 2855SOL    HW311451   0.252   2.889   4.539
 2855SOL    MW411452   0.195   2.830   4.509
 2856SOL     OW11453   4.127   3.954   4.472
 2856SOL    HW211454   4.110   4.016   4.543
 2856SOL    HW311455   4.077   3.876   4.495
 2856SOL    MW411456   4.118   3.952   4.484
 2857SOL     OW11457   3.810   4.427   4.510
 2857SOL    HW211458   3.810   4.419   4.415
 2857SOL    HW311459   3.797   4.520   4.526
 2857SOL    MW411460   3.808   4.438   4.499
 2858SOL     OW11461   3.480   0.015   4.690
 2858SOL    HW211462   3.493   0.110   4.678
 2858SOL    HW311463   3.398   0.008   4.737
 2858SOL    MW411464   3.471   0.027   4.695
 2859SOL     OW11465   3.612   1.061   4.541
 2859SOL    HW211466   3.663   1.141   4.527
 2859SOL    HW311467   3.674   1.000   4.580
 2859SOL    MW411468   3.627   1.064   4.544
 2860SOL     OW11469   3.353   0.517   4.736
 2860SOL    HW211470   3.407   0.438   4.742
 2860SOL    HW311471   3.389   0.565   4.661
 2860SOL    MW411472   3.365   0.513   4.727
 2861SOL     OW11473   4.482   0.305   4.610
 2861SOL    HW211474   4.554   0.357   4.575
 2861SOL    HW311475   4.420   0.369   4.644
 2861SOL    MW411476   4.483   0.320   4.610
 2862SOL     OW11477   0.194   0.471   4.501
 2862SOL    HW211478   0.255   0.400   4.521
 2862SOL    HW311479   0.202   0.482   4.406
 2862SOL    MW411480   0.203   0.463   4.491
 2863SOL     OW11481   3.935   0.444   4.714
 2863SOL    HW211482   3.940   0.526   4.762
 2863SOL    HW311483   4.013   0.444   4.658
 2863SOL    MW411484   3.946   0.455   4.713
 2864SOL     OW11485   3.762   1.286   4.488
 2864SOL    HW211486   3.686   1.341   4.503
 2864SOL    HW311487   3.827   1.317   4.551
 2864SOL    MW411488   3.761   1.297   4.498
 2865SOL     OW11489   4.458   1.190   4.582
 2865SOL    HW211490   4.537   1.217   4.536
 2865SOL    HW311491   4.463   1.094   4.586
 2865SOL    MW411492   4.469   1.181   4.577
 2866SOL     OW11493   4.417   1.494   4.630
 2866SOL    HW211494   4.454   1.410   4.604
 2866SOL    HW311495   4.476   1.559   4.591
 2866SOL    MW411496   4.430   1.492   4.621
 2867SOL     OW11497   3.988   1.426   4.592
 2867SOL    HW211498   4.053   1.366   4.555
 2867SOL    HW311499   3.958   1.478   4.518
 2867SOL    MW411500   3.992   1.425   4.578
 2868SOL     OW11501   3.382   2.931   4.483
 2868SOL    HW211502   3.358   2.893   4.399
 2868SOL    HW311503   3.438   3.006   4.461
 2868SOL    MW411504   3.386   2.936   4.469
 2869SOL     OW11505   4.256   2.121   4.245
 2869SOL    HW211506   4.176   2.076   4.219
 2869SOL    HW311507   4.234   2.163   4.328
 2869SOL    MW411508   4.243   2.121   4.253
 2870SOL     OW11509   0.169   2.145   4.504
 2870SOL    HW211510   0.251   2.156   4.553
 2870SOL    HW311511   0.136   2.234   4.492
 2870SOL    MW411512   0.175   2.158   4.509
 2871SOL     OW11513   4.044   2.114   4.524
 2871SOL    HW211514   4.100   2.036   4.525
 2871SOL    HW311515   4.104   2.188   4.533
 2871SOL    MW411516   4.059   2.113   4.525
 2872SOL     OW11517   3.555   2.492   4.536
 2872SOL    HW211518   3.481   2.536   4.577
 2872SOL    HW311519   3.550   2.402   4.567
 2872SOL    MW411520   3.545   2.486   4.546
 2873SOL     OW11521   0.403   2.433   4.722
 2873SOL    HW211522   0.339   2.477   4.665
 2873SOL    HW311523   0.395   2.477   4.806
 2873SOL    MW411524   0.393   2.444   4.725
 2874SOL     OW11525   4.182   2.781   4.471
 2874SOL    HW211526   4.263   2.787   4.521
 2874SOL    HW311527   4.209   2.801   4.381
 2874SOL    MW411528   4.196   2.784   4.465
 2875SOL     OW11529   4.429   2.858   4.599
 2875SOL    HW211530   4.453   2.852   4.692
 2875SOL    HW311531   4.512   2.861   4.553
 2875SOL    MW411532   4.443   2.858   4.605
 2876SOL     OW11533   0.263   3.522   4.547
 2876SOL    HW211534   0.271   3.544   4.454
 2876SOL    HW311535   0.187   3.464   4.551
 2876SOL    MW411536   0.254   3.517   4.535
 2877SOL     OW11537   4.013   0.104   4.471
 2877SOL    HW211538   4.008   0.113   4.376
 2877SOL    HW311539   3.928   0.066   4.496
 2877SOL    MW411540   4.001   0.100   4.462
 2878SOL     OW11541   3.737   0.317   4.570
 2878SOL    HW211542   3.799   0.338   4.639
 2878SOL    HW311543   3.743   0.222   4.560
 2878SOL    MW411544   3.746   0.307   4.577
 2879SOL     OW11545   4.110   3.876   4.870
 2879SOL    HW211546   4.052   3.802   4.884
 2879SOL    HW311547   4.183   3.840   4.820
 2879SOL    MW411548   4.112   3.862   4.865
 2880SOL     OW11549   2.938   0.589   4.599
 2880SOL    HW211550   2.995   0.512   4.597
 2880SOL    HW311551   2.950   0.631   4.514
 2880SOL    MW411552   2.947   0.584   4.587
 2881SOL     OW11553   4.220   4.427   4.251
 2881SOL    HW211554   4.308   4.391   4.240
 2881SOL    HW311555   4.224   4.475   4.334
 2881SOL    MW411556   4.232   4.429   4.260
 2882NA      NA11557   2.749   4.230   0.696
 2883NA      NA11558   0.481   2.217   0.286
   4.49070   4.66690  10.00000
