Gromacs Runs On Most of All Computer Systems in water t= 750.00000 step= 750000
11558
    1RG35     P    1   2.200   2.877   4.465
    1RG35   O1P    2   2.189   2.784   4.355
    1RG35   O2P    3   2.144   3.006   4.436
    1RG35   O5'    4   2.123   2.812   4.582
    1RG35   C5'    5   1.981   2.817   4.589
    1RG35  H5'1    6   1.933   2.822   4.491
    1RG35  H5'2    7   1.950   2.897   4.656
    1RG35   C4'    8   1.925   2.692   4.655
    1RG35   H4'    9   1.819   2.701   4.676
    1RG35   O4'   10   1.955   2.578   4.576
    1RG35   C1'   11   2.011   2.476   4.659
    1RG35   H1'   12   1.931   2.423   4.711
    1RG35    N9   13   2.083   2.378   4.577
    1RG35    C8   14   2.178   2.403   4.484
    1RG35    H8   15   2.227   2.499   4.473
    1RG35    N7   16   2.204   2.301   4.405
    1RG35    C5   17   2.117   2.202   4.453
    1RG35    C6   18   2.094   2.070   4.405
    1RG35    O6   19   2.128   2.014   4.302
    1RG35    N1   20   2.028   1.993   4.500
    1RG35    H1   21   2.020   1.894   4.482
    1RG35    C2   22   1.961   2.047   4.605
    1RG35    N2   23   1.891   1.965   4.683
    1RG35   H21   24   1.901   1.866   4.670
    1RG35   H22   25   1.835   2.001   4.759
    1RG35    N3   26   1.960   2.177   4.637
    1RG35    C4   27   2.050   2.248   4.565
    1RG35   C3'   28   1.997   2.671   4.797
    1RG35   H3'   29   2.057   2.755   4.831
    1RG35   C2'   30   2.089   2.554   4.762
    1RG35  H2'1   31   2.177   2.592   4.710
    1RG35   O2'   32   2.126   2.469   4.873
    1RG35  HO'2   33   2.197   2.512   4.921
    1RG35   O3'   34   1.904   2.635   4.893
    1RG35   H3T   35   1.957   2.580   4.950
    1RG35   O3P   36   2.336   2.896   4.515
    2SOL     OW   37   0.435   0.022   0.428
    2SOL    HW2   38   0.463  -0.068   0.411
    2SOL    HW3   39   0.513   0.075   0.412
    2SOL    MW4   40   0.449   0.017   0.423
    3SOL     OW   41   4.014   0.411   0.234
    3SOL    HW2   42   4.099   0.430   0.272
    3SOL    HW3   43   4.031   0.399   0.141
    3SOL    MW4   44   4.027   0.412   0.227
    4SOL     OW   45   3.785   0.494   0.530
    4SOL    HW2   46   3.696   0.525   0.517
    4SOL    HW3   47   3.798   0.497   0.625
    4SOL    MW4   48   3.775   0.498   0.541
    5SOL     OW   49   0.475   1.709   0.333
    5SOL    HW2   50   0.557   1.668   0.360
    5SOL    HW3   51   0.407   1.647   0.360
    5SOL    MW4   52   0.477   1.696   0.341
    6SOL     OW   53   1.462   0.796   0.456
    6SOL    HW2   54   1.416   0.810   0.538
    6SOL    HW3   55   1.555   0.806   0.479
    6SOL    MW4   56   1.468   0.799   0.470
    7SOL     OW   57   0.247   0.468   0.416
    7SOL    HW2   58   0.257   0.461   0.511
    7SOL    HW3   59   0.237   0.377   0.387
    7SOL    MW4   60   0.247   0.455   0.425
    8SOL     OW   61   0.537   0.862   0.430
    8SOL    HW2   62   0.506   0.869   0.521
    8SOL    HW3   63   0.518   0.772   0.405
    8SOL    MW4   64   0.530   0.851   0.439
    9SOL     OW   65   0.810   0.834   0.440
    9SOL    HW2   66   0.819   0.841   0.535
    9SOL    HW3   67   0.717   0.846   0.423
    9SOL    MW4   68   0.799   0.836   0.450
   10SOL     OW   69   0.474   1.093   0.312
   10SOL    HW2   70   0.489   1.074   0.219
   10SOL    HW3   71   0.491   1.011   0.356
   10SOL    MW4   72   0.478   1.080   0.305
   11SOL     OW   73   4.311   1.460   0.553
   11SOL    HW2   74   4.263   1.542   0.542
   11SOL    HW3   75   4.308   1.443   0.647
   11SOL    MW4   76   4.304   1.468   0.564
   12SOL     OW   77   4.087   2.359   0.625
   12SOL    HW2   78   3.997   2.326   0.638
   12SOL    HW3   79   4.076   2.451   0.603
   12SOL    MW4   80   4.073   2.367   0.624
   13SOL     OW   81   0.058   1.611   0.486
   13SOL    HW2   82   0.064   1.669   0.562
   13SOL    HW3   83   0.000   1.540   0.514
   13SOL    MW4   84   0.051   1.609   0.500
   14SOL     OW   85   0.677   2.263   0.418
   14SOL    HW2   86   0.667   2.266   0.513
   14SOL    HW3   87   0.743   2.330   0.398
   14SOL    MW4   88   0.685   2.272   0.428
   15SOL     OW   89   0.189   2.749   0.422
   15SOL    HW2   90   0.183   2.838   0.386
   15SOL    HW3   91   0.280   2.723   0.405
   15SOL    MW4   92   0.200   2.757   0.415
   16SOL     OW   93   4.086   3.397   0.432
   16SOL    HW2   94   4.137   3.344   0.371
   16SOL    HW3   95   4.075   3.341   0.509
   16SOL    MW4   96   4.091   3.383   0.434
   17SOL     OW   97   0.192   3.031   0.360
   17SOL    HW2   98   0.249   3.056   0.433
   17SOL    HW3   99   0.129   3.103   0.353
   17SOL    MW4  100   0.191   3.044   0.369
   18SOL     OW  101   0.522   3.241   0.355
   18SOL    HW2  102   0.603   3.243   0.405
   18SOL    HW3  103   0.506   3.332   0.330
   18SOL    MW4  104   0.530   3.253   0.358
   19SOL     OW  105   0.701   3.714   0.363
   19SOL    HW2  106   0.761   3.747   0.296
   19SOL    HW3  107   0.675   3.791   0.413
   19SOL    MW4  108   0.706   3.728   0.361
   20SOL     OW  109   4.191   3.866   0.449
   20SOL    HW2  110   4.263   3.918   0.485
   20SOL    HW3  111   4.225   3.776   0.446
   20SOL    MW4  112   4.205   3.861   0.453
   21SOL     OW  113   0.269   3.633   0.193
   21SOL    HW2  114   0.279   3.699   0.262
   21SOL    HW3  115   0.303   3.675   0.114
   21SOL    MW4  116   0.275   3.647   0.192
   22SOL     OW  117   0.005   4.464   0.373
   22SOL    HW2  118   0.009   4.398   0.305
   22SOL    HW3  119  -0.062   4.432   0.434
   22SOL    MW4  120  -0.004   4.451   0.372
   23SOL     OW  121   4.208   4.077   0.270
   23SOL    HW2  122   4.215   3.995   0.318
   23SOL    HW3  123   4.116   4.101   0.275
   23SOL    MW4  124   4.197   4.070   0.277
   24SOL     OW  125   4.434   4.247   0.211
   24SOL    HW2  126   4.361   4.189   0.232
   24SOL    HW3  127   4.427   4.260   0.117
   24SOL    MW4  128   4.423   4.241   0.201
   25SOL     OW  129   0.407   3.073   0.532
   25SOL    HW2  130   0.428   3.114   0.616
   25SOL    HW3  131   0.446   3.131   0.466
   25SOL    MW4  132   0.415   3.086   0.534
   26SOL     OW  133   0.505   4.434   0.378
   26SOL    HW2  134   0.418   4.403   0.400
   26SOL    HW3  135   0.515   4.416   0.285
   26SOL    MW4  136   0.495   4.428   0.369
   27SOL     OW  137   0.219   0.192   0.343
   27SOL    HW2  138   0.132   0.162   0.369
   27SOL    HW3  139   0.278   0.120   0.368
   27SOL    MW4  140   0.215   0.178   0.350
   28SOL     OW  141   4.475   0.573   0.489
   28SOL    HW2  142   4.564   0.549   0.461
   28SOL    HW3  143   4.479   0.576   0.584
   28SOL    MW4  144   4.487   0.570   0.498
   29SOL     OW  145   1.152   4.561   0.423
   29SOL    HW2  146   1.136   4.471   0.452
   29SOL    HW3  147   1.191   4.551   0.336
   29SOL    MW4  148   1.155   4.547   0.415
   30SOL     OW  149   1.120   1.202   0.448
   30SOL    HW2  150   1.036   1.158   0.434
   30SOL    HW3  151   1.109   1.288   0.409
   30SOL    MW4  152   1.108   1.207   0.441
   31SOL     OW  153   0.648   0.405   0.502
   31SOL    HW2  154   0.722   0.460   0.475
   31SOL    HW3  155   0.653   0.328   0.446
   31SOL    MW4  156   0.659   0.402   0.491
   32SOL     OW  157   0.265   1.206   0.472
   32SOL    HW2  158   0.321   1.162   0.408
   32SOL    HW3  159   0.176   1.182   0.446
   32SOL    MW4  160   0.261   1.197   0.460
   33SOL     OW  161   0.090   2.125   0.455
   33SOL    HW2  162   0.015   2.169   0.416
   33SOL    HW3  163   0.072   2.032   0.444
   33SOL    MW4  164   0.078   2.118   0.449
   34SOL     OW  165   0.519   1.991   0.360
   34SOL    HW2  166   0.452   2.055   0.336
   34SOL    HW3  167   0.489   1.909   0.321
   34SOL    MW4  168   0.506   1.988   0.352
   35SOL     OW  169   0.433   3.019   0.211
   35SOL    HW2  170   0.342   3.018   0.238
   35SOL    HW3  171   0.470   3.097   0.252
   35SOL    MW4  172   0.426   3.030   0.220
   36SOL     OW  173   0.649   2.843   0.196
   36SOL    HW2  174   0.575   2.901   0.177
   36SOL    HW3  175   0.717   2.901   0.229
   36SOL    MW4  176   0.648   2.858   0.198
   37SOL     OW  177   3.907   2.166   0.268
   37SOL    HW2  178   3.986   2.172   0.322
   37SOL    HW3  179   3.940   2.148   0.180
   37SOL    MW4  180   3.922   2.164   0.264
   38SOL     OW  181   1.171   2.077   0.442
   38SOL    HW2  182   1.158   2.080   0.537
   38SOL    HW3  183   1.265   2.063   0.432
   38SOL    MW4  184   1.181   2.075   0.454
   39SOL     OW  185   0.415   2.406   0.378
   39SOL    HW2  186   0.409   2.501   0.383
   39SOL    HW3  187   0.508   2.389   0.365
   39SOL    MW4  188   0.427   2.416   0.377
   40SOL     OW  189   4.228   3.222   0.263
   40SOL    HW2  190   4.200   3.139   0.302
   40SOL    HW3  191   4.202   3.215   0.171
   40SOL    MW4  192   4.221   3.210   0.256
   41SOL     OW  193   0.465   2.690   0.376
   41SOL    HW2  194   0.479   2.756   0.308
   41SOL    HW3  195   0.516   2.721   0.451
   41SOL    MW4  196   0.474   2.702   0.377
   42SOL     OW  197   0.802   0.376   0.217
   42SOL    HW2  198   0.725   0.409   0.170
   42SOL    HW3  199   0.839   0.453   0.259
   42SOL    MW4  200   0.797   0.391   0.216
   43SOL     OW  201   0.242   3.606   0.528
   43SOL    HW2  202   0.257   3.693   0.490
   43SOL    HW3  203   0.319   3.555   0.503
   43SOL    MW4  204   0.254   3.611   0.520
   44SOL     OW  205   0.484   3.515   0.336
   44SOL    HW2  206   0.427   3.561   0.275
   44SOL    HW3  207   0.568   3.561   0.330
   44SOL    MW4  208   0.487   3.527   0.327
   45SOL     OW  209   1.123   3.631   0.457
   45SOL    HW2  210   1.037   3.590   0.444
   45SOL    HW3  211   1.185   3.562   0.433
   45SOL    MW4  212   1.120   3.616   0.452
   46SOL     OW  213   0.262   4.344   0.454
   46SOL    HW2  214   0.179   4.389   0.439
   46SOL    HW3  215   0.240   4.251   0.445
   46SOL    MW4  216   0.248   4.337   0.451
   47SOL     OW  217   0.838   3.508   0.494
   47SOL    HW2  218   0.795   3.577   0.443
   47SOL    HW3  219   0.790   3.506   0.576
   47SOL    MW4  220   0.826   3.517   0.498
   48SOL     OW  221   0.684   4.213   0.495
   48SOL    HW2  222   0.682   4.301   0.457
   48SOL    HW3  223   0.681   4.228   0.590
   48SOL    MW4  224   0.684   4.227   0.503
   49SOL     OW  225   0.668   0.173   0.349
   49SOL    HW2  226   0.751   0.136   0.380
   49SOL    HW3  227   0.690   0.216   0.267
   49SOL    MW4  228   0.682   0.174   0.342
   50SOL     OW  229   0.879   0.580   0.384
   50SOL    HW2  230   0.848   0.666   0.412
   50SOL    HW3  231   0.958   0.564   0.435
   50SOL    MW4  232   0.885   0.589   0.394
   51SOL     OW  233   0.508   0.569   0.356
   51SOL    HW2  234   0.415   0.547   0.367
   51SOL    HW3  235   0.555   0.509   0.414
   51SOL    MW4  236   0.502   0.558   0.365
   52SOL     OW  237   1.415   0.510   0.388
   52SOL    HW2  238   1.499   0.484   0.428
   52SOL    HW3  239   1.416   0.605   0.390
   52SOL    MW4  240   1.426   0.519   0.394
   53SOL     OW  241   2.007   0.726   0.465
   53SOL    HW2  242   1.923   0.771   0.453
   53SOL    HW3  243   2.003   0.692   0.554
   53SOL    MW4  244   1.995   0.728   0.475
   54SOL     OW  245   1.444   4.657   0.210
   54SOL    HW2  246   1.530   4.645   0.250
   54SOL    HW3  247   1.422   4.749   0.228
   54SOL    MW4  248   1.452   4.668   0.218
   55SOL     OW  249   0.713   1.542   0.384
   55SOL    HW2  250   0.698   1.448   0.395
   55SOL    HW3  251   0.804   1.554   0.410
   55SOL    MW4  252   0.723   1.531   0.389
   56SOL     OW  253   0.673   1.249   0.445
   56SOL    HW2  254   0.587   1.229   0.407
   56SOL    HW3  255   0.734   1.196   0.394
   56SOL    MW4  256   0.670   1.239   0.433
   57SOL     OW  257   1.402   1.390   0.324
   57SOL    HW2  258   1.416   1.296   0.315
   57SOL    HW3  259   1.308   1.402   0.308
   57SOL    MW4  260   1.391   1.379   0.321
   58SOL     OW  261   0.862   1.086   0.322
   58SOL    HW2  262   0.893   1.066   0.233
   58SOL    HW3  263   0.850   1.000   0.362
   58SOL    MW4  264   0.865   1.072   0.315
   59SOL     OW  265   1.125   1.450   0.323
   59SOL    HW2  266   1.086   1.519   0.377
   59SOL    HW3  267   1.107   1.478   0.233
   59SOL    MW4  268   1.118   1.463   0.318
   60SOL     OW  269   4.390   2.324   0.317
   60SOL    HW2  270   4.418   2.399   0.370
   60SOL    HW3  271   4.440   2.332   0.236
   60SOL    MW4  272   4.400   2.335   0.313
   61SOL     OW  273   4.480   1.861   0.337
   61SOL    HW2  274   4.504   1.774   0.372
   61SOL    HW3  275   4.492   1.853   0.243
   61SOL    MW4  276   4.485   1.848   0.329
   62SOL     OW  277   0.834   1.939   0.531
   62SOL    HW2  278   0.846   1.850   0.497
   62SOL    HW3  279   0.856   1.932   0.624
   62SOL    MW4  280   0.838   1.926   0.539
   63SOL     OW  281   0.813   1.831   0.233
   63SOL    HW2  282   0.769   1.746   0.231
   63SOL    HW3  283   0.906   1.810   0.237
   63SOL    MW4  284   0.820   1.817   0.233
   64SOL     OW  285   0.945   2.153   0.288
   64SOL    HW2  286   0.948   2.246   0.266
   64SOL    HW3  287   1.030   2.135   0.328
   64SOL    MW4  288   0.956   2.163   0.290
   65SOL     OW  289   0.684   2.554   0.154
   65SOL    HW2  290   0.639   2.552   0.070
   65SOL    HW3  291   0.668   2.642   0.188
   65SOL    MW4  292   0.676   2.566   0.148
   66SOL     OW  293   0.618   2.880   0.515
   66SOL    HW2  294   0.556   2.954   0.517
   66SOL    HW3  295   0.637   2.863   0.607
   66SOL    MW4  296   0.612   2.888   0.528
   67SOL     OW  297   0.776   3.237   0.471
   67SOL    HW2  298   0.811   3.212   0.557
   67SOL    HW3  299   0.790   3.331   0.465
   67SOL    MW4  300   0.783   3.246   0.482
   68SOL     OW  301   2.079   3.064   0.369
   68SOL    HW2  302   2.099   3.098   0.281
   68SOL    HW3  303   2.147   3.101   0.425
   68SOL    MW4  304   2.091   3.074   0.365
   69SOL     OW  305   0.951   4.124   0.538
   69SOL    HW2  306   0.863   4.141   0.505
   69SOL    HW3  307   0.939   4.058   0.607
   69SOL    MW4  308   0.938   4.117   0.543
   70SOL     OW  309   0.575   3.946   0.487
   70SOL    HW2  310   0.528   3.958   0.569
   70SOL    HW3  311   0.605   4.033   0.462
   70SOL    MW4  312   0.573   3.959   0.494
   71SOL     OW  313   1.141   4.309   0.542
   71SOL    HW2  314   1.063   4.257   0.520
   71SOL    HW3  315   1.124   4.341   0.630
   71SOL    MW4  316   1.128   4.306   0.551
   72SOL     OW  317   1.131   0.496   0.464
   72SOL    HW2  318   1.088   0.421   0.423
   72SOL    HW3  319   1.223   0.488   0.438
   72SOL    MW4  320   1.137   0.485   0.455
   73SOL     OW  321   0.937   0.064   0.458
   73SOL    HW2  322   1.004   0.000   0.434
   73SOL    HW3  323   0.940   0.066   0.554
   73SOL    MW4  324   0.947   0.056   0.468
   74SOL     OW  325   1.320   0.252   0.307
   74SOL    HW2  326   1.234   0.275   0.272
   74SOL    HW3  327   1.365   0.336   0.319
   74SOL    MW4  328   1.315   0.266   0.304
   75SOL     OW  329   1.965   4.460   0.417
   75SOL    HW2  330   1.986   4.368   0.403
   75SOL    HW3  331   1.879   4.471   0.376
   75SOL    MW4  332   1.957   4.449   0.410
   76SOL     OW  333   1.053   0.277   0.313
   76SOL    HW2  334   1.009   0.206   0.360
   76SOL    HW3  335   0.982   0.325   0.270
   76SOL    MW4  336   1.038   0.274   0.314
   77SOL     OW  337   2.064   0.258   0.333
   77SOL    HW2  338   2.019   0.335   0.367
   77SOL    HW3  339   2.033   0.249   0.243
   77SOL    MW4  340   2.054   0.267   0.325
   78SOL     OW  341   2.434   1.065   0.325
   78SOL    HW2  342   2.398   1.064   0.236
   78SOL    HW3  343   2.360   1.045   0.382
   78SOL    MW4  344   2.420   1.062   0.320
   79SOL     OW  345   1.645   1.140   0.466
   79SOL    HW2  346   1.552   1.150   0.447
   79SOL    HW3  347   1.687   1.212   0.419
   79SOL    MW4  348   1.639   1.151   0.457
   80SOL     OW  349   1.723   0.853   0.493
   80SOL    HW2  350   1.763   0.862   0.579
   80SOL    HW3  351   1.692   0.942   0.471
   80SOL    MW4  352   1.724   0.866   0.501
   81SOL     OW  353   1.393   1.112   0.377
   81SOL    HW2  354   1.304   1.133   0.406
   81SOL    HW3  355   1.396   1.016   0.376
   81SOL    MW4  356   1.381   1.102   0.381
   82SOL     OW  357   1.859   1.947   0.470
   82SOL    HW2  358   1.887   1.951   0.562
   82SOL    HW3  359   1.910   2.014   0.426
   82SOL    MW4  360   1.869   1.956   0.476
   83SOL     OW  361   1.122   2.572   0.268
   83SOL    HW2  362   1.176   2.562   0.190
   83SOL    HW3  363   1.178   2.543   0.340
   83SOL    MW4  364   1.136   2.567   0.267
   84SOL     OW  365   1.334   2.489   0.451
   84SOL    HW2  366   1.363   2.574   0.420
   84SOL    HW3  367   1.396   2.427   0.412
   84SOL    MW4  368   1.346   2.492   0.442
   85SOL     OW  369   2.203   1.987   0.516
   85SOL    HW2  370   2.299   1.981   0.517
   85SOL    HW3  371   2.186   2.076   0.486
   85SOL    MW4  372   2.214   1.998   0.512
   86SOL     OW  373   1.577   2.318   0.316
   86SOL    HW2  374   1.607   2.348   0.230
   86SOL    HW3  375   1.622   2.375   0.378
   86SOL    MW4  376   1.587   2.330   0.313
   87SOL     OW  377   0.975   1.623   0.485
   87SOL    HW2  378   0.979   1.641   0.579
   87SOL    HW3  379   1.017   1.699   0.444
   87SOL    MW4  380   0.981   1.635   0.492
   88SOL     OW  381   0.857   2.981   0.387
   88SOL    HW2  382   0.794   2.938   0.446
   88SOL    HW3  383   0.853   3.073   0.411
   88SOL    MW4  384   0.848   2.987   0.398
   89SOL     OW  385   1.955   2.253   0.440
   89SOL    HW2  386   1.944   2.198   0.517
   89SOL    HW3  387   2.048   2.274   0.438
   89SOL    MW4  388   1.965   2.249   0.450
   90SOL     OW  389   1.933   0.459   0.435
   90SOL    HW2  390   1.962   0.549   0.418
   90SOL    HW3  391   1.838   0.466   0.446
   90SOL    MW4  392   1.924   0.472   0.435
   91SOL     OW  393   1.116   3.919   0.368
   91SOL    HW2  394   1.104   3.838   0.419
   91SOL    HW3  395   1.093   3.989   0.429
   91SOL    MW4  396   1.112   3.917   0.383
   92SOL     OW  397   2.090   2.591   0.501
   92SOL    HW2  398   2.078   2.685   0.514
   92SOL    HW3  399   2.150   2.564   0.572
   92SOL    MW4  400   2.097   2.600   0.512
   93SOL     OW  401   1.376   3.942   0.461
   93SOL    HW2  402   1.301   3.904   0.415
   93SOL    HW3  403   1.389   4.028   0.420
   93SOL    MW4  404   1.368   3.948   0.450
   94SOL     OW  405   1.689   2.837   0.462
   94SOL    HW2  406   1.780   2.854   0.485
   94SOL    HW3  407   1.641   2.853   0.544
   94SOL    MW4  408   1.694   2.842   0.476
   95SOL     OW  409   2.174   3.954   0.457
   95SOL    HW2  410   2.148   3.862   0.453
   95SOL    HW3  411   2.267   3.954   0.433
   95SOL    MW4  412   2.183   3.942   0.453
   96SOL     OW  413   0.884   3.844   0.203
   96SOL    HW2  414   0.919   3.829   0.116
   96SOL    HW3  415   0.952   3.895   0.248
   96SOL    MW4  416   0.898   3.849   0.198
   97SOL     OW  417   1.696   4.550   0.357
   97SOL    HW2  418   1.706   4.621   0.421
   97SOL    HW3  419   1.673   4.474   0.409
   97SOL    MW4  420   1.695   4.550   0.372
   98SOL     OW  421   2.051   4.650   0.799
   98SOL    HW2  422   2.074   4.563   0.765
   98SOL    HW3  423   2.054   4.707   0.723
   98SOL    MW4  424   2.054   4.646   0.785
   99SOL     OW  425   2.534   4.360   0.291
   99SOL    HW2  426   2.583   4.388   0.369
   99SOL    HW3  427   2.534   4.437   0.234
   99SOL    MW4  428   2.541   4.374   0.294
  100SOL     OW  429   1.389   4.237   0.398
  100SOL    HW2  430   1.312   4.247   0.453
  100SOL    HW3  431   1.372   4.293   0.322
  100SOL    MW4  432   1.377   4.246   0.395
  101SOL     OW  433   2.344   0.290   0.294
  101SOL    HW2  434   2.252   0.295   0.318
  101SOL    HW3  435   2.379   0.376   0.317
  101SOL    MW4  436   2.336   0.302   0.300
  102SOL     OW  437   1.614   1.825   0.347
  102SOL    HW2  438   1.696   1.867   0.373
  102SOL    HW3  439   1.640   1.737   0.320
  102SOL    MW4  440   1.629   1.819   0.347
  103SOL     OW  441   2.038   1.239   0.475
  103SOL    HW2  442   1.965   1.275   0.425
  103SOL    HW3  443   2.103   1.309   0.477
  103SOL    MW4  444   2.037   1.253   0.469
  104SOL     OW  445   2.556   1.290   0.507
  104SOL    HW2  446   2.650   1.277   0.524
  104SOL    HW3  447   2.533   1.221   0.444
  104SOL    MW4  448   2.565   1.279   0.501
  105SOL     OW  449   2.625   1.703   0.438
  105SOL    HW2  450   2.652   1.687   0.347
  105SOL    HW3  451   2.696   1.665   0.491
  105SOL    MW4  452   2.638   1.696   0.433
  106SOL     OW  453   1.641   1.551   0.384
  106SOL    HW2  454   1.552   1.524   0.362
  106SOL    HW3  455   1.641   1.560   0.479
  106SOL    MW4  456   1.630   1.548   0.393
  107SOL     OW  457   1.321   1.722   0.411
  107SOL    HW2  458   1.406   1.751   0.377
  107SOL    HW3  459   1.336   1.708   0.504
  107SOL    MW4  460   1.334   1.724   0.419
  108SOL     OW  461   2.225   2.294   0.483
  108SOL    HW2  462   2.257   2.363   0.425
  108SOL    HW3  463   2.238   2.329   0.571
  108SOL    MW4  464   2.231   2.308   0.487
  109SOL     OW  465   1.707   3.140   0.481
  109SOL    HW2  466   1.686   3.050   0.454
  109SOL    HW3  467   1.797   3.154   0.449
  109SOL    MW4  468   1.716   3.130   0.473
  110SOL     OW  469   1.073   2.806   0.428
  110SOL    HW2  470   1.056   2.730   0.373
  110SOL    HW3  471   0.994   2.860   0.420
  110SOL    MW4  472   1.060   2.803   0.420
  111SOL     OW  473   1.433   3.215   0.501
  111SOL    HW2  474   1.529   3.213   0.500
  111SOL    HW3  475   1.406   3.132   0.461
  111SOL    MW4  476   1.442   3.204   0.496
  112SOL     OW  477   1.072   1.841   0.343
  112SOL    HW2  478   1.158   1.799   0.345
  112SOL    HW3  479   1.088   1.930   0.375
  112SOL    MW4  480   1.086   1.848   0.348
  113SOL     OW  481   3.714   1.467   0.305
  113SOL    HW2  482   3.633   1.473   0.356
  113SOL    HW3  483   3.690   1.494   0.217
  113SOL    MW4  484   3.700   1.471   0.300
  114SOL     OW  485   1.775   2.464   0.479
  114SOL    HW2  486   1.859   2.420   0.467
  114SOL    HW3  487   1.790   2.554   0.451
  114SOL    MW4  488   1.788   2.470   0.474
  115SOL     OW  489   1.448   2.076   0.414
  115SOL    HW2  490   1.491   2.152   0.375
  115SOL    HW3  491   1.498   2.001   0.381
  115SOL    MW4  492   1.460   2.076   0.404
  116SOL     OW  493   1.350   3.490   0.404
  116SOL    HW2  494   1.423   3.553   0.400
  116SOL    HW3  495   1.392   3.406   0.425
  116SOL    MW4  496   1.365   3.487   0.406
  117SOL     OW  497   2.624   3.447   0.280
  117SOL    HW2  498   2.679   3.388   0.331
  117SOL    HW3  499   2.550   3.393   0.253
  117SOL    MW4  500   2.622   3.432   0.283
  118SOL     OW  501   1.645   4.304   0.479
  118SOL    HW2  502   1.638   4.338   0.568
  118SOL    HW3  503   1.555   4.282   0.455
  118SOL    MW4  504   1.632   4.306   0.488
  119SOL     OW  505   1.549   3.687   0.442
  119SOL    HW2  506   1.488   3.759   0.427
  119SOL    HW3  507   1.636   3.727   0.441
  119SOL    MW4  508   1.552   3.701   0.440
  120SOL     OW  509   1.365   4.404   0.167
  120SOL    HW2  510   1.405   4.491   0.180
  120SOL    HW3  511   1.394   4.378   0.079
  120SOL    MW4  512   1.374   4.412   0.157
  121SOL     OW  513   1.361   0.076   0.525
  121SOL    HW2  514   1.348   0.133   0.449
  121SOL    HW3  515   1.294   0.009   0.515
  121SOL    MW4  516   1.351   0.075   0.513
  122SOL     OW  517   2.452   4.613   0.611
  122SOL    HW2  518   2.460   4.678   0.541
  122SOL    HW3  519   2.406   4.659   0.681
  122SOL    MW4  520   2.447   4.627   0.611
  123SOL     OW  521   2.027   0.059   0.524
  123SOL    HW2  522   2.042   0.123   0.454
  123SOL    HW3  523   2.019  -0.025   0.480
  123SOL    MW4  524   2.028   0.057   0.509
  124SOL     OW  525   2.411   1.530   0.434
  124SOL    HW2  526   2.465   1.452   0.444
  124SOL    HW3  527   2.471   1.603   0.450
  124SOL    MW4  528   2.426   1.530   0.437
  125SOL     OW  529   2.755   0.430   0.360
  125SOL    HW2  530   2.766   0.424   0.265
  125SOL    HW3  531   2.823   0.491   0.388
  125SOL    MW4  532   2.765   0.438   0.351
  126SOL     OW  533   2.176   0.992   0.451
  126SOL    HW2  534   2.128   1.074   0.459
  126SOL    HW3  535   2.109   0.925   0.442
  126SOL    MW4  536   2.161   0.994   0.451
  127SOL     OW  537   2.837   1.266   0.532
  127SOL    HW2  538   2.909   1.246   0.473
  127SOL    HW3  539   2.870   1.244   0.619
  127SOL    MW4  540   2.851   1.260   0.536
  128SOL     OW  541   2.845   1.550   0.521
  128SOL    HW2  542   2.847   1.455   0.511
  128SOL    HW3  543   2.810   1.564   0.609
  128SOL    MW4  544   2.841   1.540   0.532
  129SOL     OW  545   3.245   2.063   0.540
  129SOL    HW2  546   3.185   2.006   0.588
  129SOL    HW3  547   3.318   2.006   0.517
  129SOL    MW4  548   3.247   2.048   0.544
  130SOL     OW  549   2.824   4.553   0.372
  130SOL    HW2  550   2.845   4.643   0.397
  130SOL    HW3  551   2.901   4.502   0.398
  130SOL    MW4  552   2.837   4.558   0.379
  131SOL     OW  553   2.074   1.743   0.436
  131SOL    HW2  554   1.989   1.787   0.426
  131SOL    HW3  555   2.129   1.808   0.480
  131SOL    MW4  556   2.070   1.758   0.441
  132SOL     OW  557   1.624   1.544   0.672
  132SOL    HW2  558   1.665   1.585   0.749
  132SOL    HW3  559   1.534   1.576   0.673
  132SOL    MW4  560   1.618   1.553   0.682
  133SOL     OW  561   2.506   1.945   0.534
  133SOL    HW2  562   2.542   1.861   0.509
  133SOL    HW3  563   2.579   2.007   0.522
  133SOL    MW4  564   2.521   1.942   0.529
  134SOL     OW  565   2.700   2.167   0.456
  134SOL    HW2  566   2.774   2.136   0.405
  134SOL    HW3  567   2.731   2.169   0.546
  134SOL    MW4  568   2.714   2.163   0.461
  135SOL     OW  569   2.528   2.575   0.456
  135SOL    HW2  570   2.598   2.530   0.410
  135SOL    HW3  571   2.449   2.554   0.406
  135SOL    MW4  572   2.526   2.566   0.444
  136SOL     OW  573   1.426   2.742   0.380
  136SOL    HW2  574   1.514   2.770   0.407
  136SOL    HW3  575   1.374   2.822   0.379
  136SOL    MW4  576   1.431   2.756   0.383
  137SOL     OW  577   1.294   2.984   0.379
  137SOL    HW2  578   1.219   2.938   0.416
  137SOL    HW3  579   1.270   2.997   0.287
  137SOL    MW4  580   1.281   2.979   0.371
  138SOL     OW  581   2.088   3.696   0.466
  138SOL    HW2  582   2.138   3.623   0.430
  138SOL    HW3  583   2.070   3.671   0.556
  138SOL    MW4  584   2.092   3.683   0.473
  139SOL     OW  585   2.443   3.912   0.433
  139SOL    HW2  586   2.471   3.821   0.422
  139SOL    HW3  587   2.490   3.959   0.364
  139SOL    MW4  588   2.453   3.906   0.422
  140SOL     OW  589   1.813   3.784   0.435
  140SOL    HW2  590   1.819   3.879   0.422
  140SOL    HW3  591   1.903   3.754   0.442
  140SOL    MW4  592   1.825   3.792   0.434
  141SOL     OW  593   2.253   3.490   0.393
  141SOL    HW2  594   2.338   3.525   0.367
  141SOL    HW3  595   2.271   3.400   0.419
  141SOL    MW4  596   2.267   3.483   0.393
  142SOL     OW  597   2.328   4.338   0.477
  142SOL    HW2  598   2.384   4.357   0.402
  142SOL    HW3  599   2.327   4.419   0.527
  142SOL    MW4  600   2.335   4.351   0.474
  143SOL     OW  601   2.092   4.211   0.405
  143SOL    HW2  602   2.110   4.118   0.415
  143SOL    HW3  603   2.173   4.254   0.434
  143SOL    MW4  604   2.105   4.205   0.410
  144SOL     OW  605   3.109   0.138   0.489
  144SOL    HW2  606   3.017   0.152   0.468
  144SOL    HW3  607   3.109   0.108   0.580
  144SOL    MW4  608   3.097   0.136   0.498
  145SOL     OW  609   2.549   3.662   0.425
  145SOL    HW2  610   2.522   3.637   0.513
  145SOL    HW3  611   2.587   3.582   0.388
  145SOL    MW4  612   2.551   3.648   0.432
  146SOL     OW  613   2.502   4.148   0.578
  146SOL    HW2  614   2.436   4.211   0.548
  146SOL    HW3  615   2.481   4.067   0.532
  146SOL    MW4  616   2.491   4.146   0.568
  147SOL     OW  617   2.553   0.103   0.415
  147SOL    HW2  618   2.506   0.178   0.379
  147SOL    HW3  619   2.645   0.128   0.408
  147SOL    MW4  620   2.559   0.116   0.409
  148SOL     OW  621   1.650   0.422   0.505
  148SOL    HW2  622   1.660   0.327   0.506
  148SOL    HW3  623   1.623   0.444   0.595
  148SOL    MW4  624   1.647   0.412   0.517
  149SOL     OW  625   2.997   0.585   0.411
  149SOL    HW2  626   3.013   0.679   0.419
  149SOL    HW3  627   3.075   0.551   0.370
  149SOL    MW4  628   3.009   0.593   0.407
  150SOL     OW  629   2.157   1.483   0.533
  150SOL    HW2  630   2.243   1.491   0.493
  150SOL    HW3  631   2.103   1.546   0.485
  150SOL    MW4  632   2.161   1.492   0.521
  151SOL     OW  633   2.488   0.528   0.397
  151SOL    HW2  634   2.485   0.624   0.394
  151SOL    HW3  635   2.578   0.506   0.371
  151SOL    MW4  636   2.499   0.538   0.393
  152SOL     OW  637   3.097   1.683   0.522
  152SOL    HW2  638   3.009   1.651   0.502
  152SOL    HW3  639   3.082   1.772   0.556
  152SOL    MW4  640   3.083   1.691   0.524
  153SOL     OW  641   3.332   0.915   0.443
  153SOL    HW2  642   3.410   0.944   0.395
  153SOL    HW3  643   3.366   0.882   0.526
  153SOL    MW4  644   3.347   0.915   0.448
  154SOL     OW  645   3.733   1.940   0.330
  154SOL    HW2  646   3.775   2.019   0.297
  154SOL    HW3  647   3.769   1.929   0.418
  154SOL    MW4  648   3.743   1.949   0.337
  155SOL     OW  649   2.828   0.159   0.456
  155SOL    HW2  650   2.816   0.252   0.436
  155SOL    HW3  651   2.778   0.145   0.536
  155SOL    MW4  652   2.820   0.170   0.464
  156SOL     OW  653   3.048   1.914   0.677
  156SOL    HW2  654   2.979   1.980   0.681
  156SOL    HW3  655   3.087   1.914   0.764
  156SOL    MW4  656   3.044   1.923   0.689
  157SOL     OW  657   2.735   2.420   0.364
  157SOL    HW2  658   2.827   2.412   0.339
  157SOL    HW3  659   2.717   2.340   0.414
  157SOL    MW4  660   2.745   2.408   0.367
  158SOL     OW  661   2.950   2.080   0.351
  158SOL    HW2  662   2.992   2.101   0.267
  158SOL    HW3  663   3.018   2.035   0.401
  158SOL    MW4  664   2.964   2.077   0.347
  159SOL     OW  665   2.275   2.524   0.316
  159SOL    HW2  666   2.198   2.554   0.363
  159SOL    HW3  667   2.273   2.571   0.233
  159SOL    MW4  668   2.265   2.534   0.311
  160SOL     OW  669   2.590   2.843   0.472
  160SOL    HW2  670   2.564   2.752   0.455
  160SOL    HW3  671   2.558   2.860   0.561
  160SOL    MW4  672   2.582   2.833   0.482
  161SOL     OW  673   3.171   3.159   0.425
  161SOL    HW2  674   3.157   3.068   0.399
  161SOL    HW3  675   3.141   3.164   0.516
  161SOL    MW4  676   3.165   3.148   0.434
  162SOL     OW  677   3.417   3.216   0.565
  162SOL    HW2  678   3.397   3.181   0.652
  162SOL    HW3  679   3.348   3.180   0.509
  162SOL    MW4  680   3.405   3.207   0.569
  163SOL     OW  681   2.313   3.214   0.461
  163SOL    HW2  682   2.403   3.187   0.441
  163SOL    HW3  683   2.308   3.211   0.556
  163SOL    MW4  684   2.325   3.210   0.471
  164SOL     OW  685   1.838   4.076   0.472
  164SOL    HW2  686   1.767   4.138   0.454
  164SOL    HW3  687   1.918   4.126   0.457
  164SOL    MW4  688   1.839   4.091   0.467
  165SOL     OW  689   3.322   4.155   0.438
  165SOL    HW2  690   3.247   4.150   0.379
  165SOL    HW3  691   3.323   4.071   0.484
  165SOL    MW4  692   3.312   4.143   0.437
  166SOL     OW  693   3.003   3.369   0.331
  166SOL    HW2  694   2.999   3.390   0.238
  166SOL    HW3  695   3.076   3.307   0.338
  166SOL    MW4  696   3.012   3.363   0.320
  167SOL     OW  697   2.771   3.260   0.470
  167SOL    HW2  698   2.758   3.258   0.564
  167SOL    HW3  699   2.860   3.292   0.458
  167SOL    MW4  700   2.781   3.264   0.481
  168SOL     OW  701   3.725   4.242   0.699
  168SOL    HW2  702   3.763   4.155   0.715
  168SOL    HW3  703   3.678   4.232   0.616
  168SOL    MW4  704   3.724   4.229   0.690
  169SOL     OW  705   3.099   4.167   0.272
  169SOL    HW2  706   3.082   4.245   0.325
  169SOL    HW3  707   3.014   4.122   0.269
  169SOL    MW4  708   3.085   4.172   0.278
  170SOL     OW  709   3.350   0.269   0.457
  170SOL    HW2  710   3.274   0.211   0.459
  170SOL    HW3  711   3.424   0.212   0.435
  170SOL    MW4  712   3.350   0.254   0.454
  171SOL     OW  713   2.611   4.608   0.199
  171SOL    HW2  714   2.601   4.656   0.281
  171SOL    HW3  715   2.703   4.581   0.198
  171SOL    MW4  716   2.622   4.611   0.209
  172SOL     OW  717   2.836   4.048   0.354
  172SOL    HW2  718   2.821   3.960   0.389
  172SOL    HW3  719   2.753   4.071   0.312
  172SOL    MW4  720   2.823   4.039   0.353
  173SOL     OW  721   2.536   0.191   0.096
  173SOL    HW2  722   2.465   0.210   0.157
  173SOL    HW3  723   2.558   0.099   0.113
  173SOL    MW4  724   2.530   0.181   0.107
  174SOL     OW  725   2.786   0.928   0.412
  174SOL    HW2  726   2.875   0.898   0.433
  174SOL    HW3  727   2.790   1.023   0.423
  174SOL    MW4  728   2.798   0.936   0.416
  175SOL     OW  729   3.479   1.453   0.447
  175SOL    HW2  730   3.512   1.476   0.534
  175SOL    HW3  731   3.424   1.377   0.462
  175SOL    MW4  732   3.476   1.446   0.460
  176SOL     OW  733   3.535   0.607   0.471
  176SOL    HW2  734   3.454   0.577   0.430
  176SOL    HW3  735   3.507   0.672   0.535
  176SOL    MW4  736   3.521   0.611   0.474
  177SOL     OW  737   3.053   0.864   0.468
  177SOL    HW2  738   3.059   0.838   0.560
  177SOL    HW3  739   3.144   0.859   0.436
  177SOL    MW4  740   3.066   0.860   0.476
  178SOL     OW  741   3.590   1.854   0.672
  178SOL    HW2  742   3.529   1.879   0.603
  178SOL    HW3  743   3.566   1.909   0.747
  178SOL    MW4  744   3.579   1.864   0.673
  179SOL     OW  745   3.459   1.921   0.437
  179SOL    HW2  746   3.413   1.859   0.381
  179SOL    HW3  747   3.538   1.943   0.389
  179SOL    MW4  748   3.463   1.916   0.424
  180SOL     OW  749   3.324   1.220   0.514
  180SOL    HW2  750   3.357   1.140   0.471
  180SOL    HW3  751   3.327   1.200   0.607
  180SOL    MW4  752   3.329   1.207   0.520
  181SOL     OW  753   3.887   1.697   0.302
  181SOL    HW2  754   3.818   1.761   0.287
  181SOL    HW3  755   3.841   1.613   0.307
  181SOL    MW4  756   3.872   1.695   0.301
  182SOL     OW  757   3.320   2.315   0.624
  182SOL    HW2  758   3.288   2.229   0.597
  182SOL    HW3  759   3.381   2.297   0.696
  182SOL    MW4  760   3.324   2.301   0.630
  183SOL     OW  761   3.516   2.702   0.573
  183SOL    HW2  762   3.533   2.686   0.666
  183SOL    HW3  763   3.497   2.616   0.537
  183SOL    MW4  764   3.516   2.689   0.581
  184SOL     OW  765   1.986   2.843   0.507
  184SOL    HW2  766   1.999   2.857   0.601
  184SOL    HW3  767   2.029   2.918   0.466
  184SOL    MW4  768   1.994   2.855   0.514
  185SOL     OW  769   3.210   2.595   0.346
  185SOL    HW2  770   3.151   2.521   0.358
  185SOL    HW3  771   3.298   2.558   0.351
  185SOL    MW4  772   3.214   2.581   0.348
  186SOL     OW  773   2.932   2.801   0.769
  186SOL    HW2  774   2.915   2.784   0.676
  186SOL    HW3  775   3.012   2.752   0.787
  186SOL    MW4  776   2.940   2.792   0.759
  187SOL     OW  777   2.531   0.800   0.419
  187SOL    HW2  778   2.625   0.819   0.424
  187SOL    HW3  779   2.494   0.871   0.367
  187SOL    MW4  780   2.539   0.812   0.413
  188SOL     OW  781   2.889   4.192   0.583
  188SOL    HW2  782   2.867   4.132   0.512
  188SOL    HW3  783   2.950   4.143   0.638
  188SOL    MW4  784   2.894   4.178   0.581
  189SOL     OW  785   3.288   3.638   0.453
  189SOL    HW2  786   3.363   3.626   0.394
  189SOL    HW3  787   3.305   3.577   0.525
  189SOL    MW4  788   3.300   3.628   0.455
  190SOL     OW  789   3.779   3.419   0.428
  190SOL    HW2  790   3.873   3.401   0.421
  190SOL    HW3  791   3.774   3.491   0.492
  190SOL    MW4  792   3.791   3.426   0.436
  191SOL     OW  793   3.748   3.269   0.710
  191SOL    HW2  794   3.842   3.283   0.708
  191SOL    HW3  795   3.725   3.241   0.621
  191SOL    MW4  796   3.757   3.267   0.698
  192SOL     OW  797   2.795   3.820   0.481
  192SOL    HW2  798   2.872   3.764   0.472
  192SOL    HW3  799   2.722   3.764   0.458
  192SOL    MW4  800   2.796   3.806   0.477
  193SOL     OW  801   2.553   3.101   0.356
  193SOL    HW2  802   2.633   3.130   0.400
  193SOL    HW3  803   2.553   3.006   0.368
  193SOL    MW4  804   2.564   3.092   0.363
  194SOL     OW  805   4.222   0.169   0.458
  194SOL    HW2  806   4.304   0.130   0.429
  194SOL    HW3  807   4.156   0.102   0.439
  194SOL    MW4  808   4.224   0.155   0.452
  195SOL     OW  809   3.865   0.229   0.413
  195SOL    HW2  810   3.820   0.291   0.470
  195SOL    HW3  811   3.921   0.283   0.357
  195SOL    MW4  812   3.866   0.244   0.413
  196SOL     OW  813   2.745   0.369   0.070
  196SOL    HW2  814   2.681   0.298   0.077
  196SOL    HW3  815   2.727   0.410  -0.014
  196SOL    MW4  816   2.734   0.365   0.060
  197SOL     OW  817   3.281   0.540   0.357
  197SOL    HW2  818   3.276   0.446   0.374
  197SOL    HW3  819   3.299   0.546   0.263
  197SOL    MW4  820   3.283   0.528   0.347
  198SOL     OW  821   3.920   0.670   0.365
  198SOL    HW2  822   3.935   0.594   0.309
  198SOL    HW3  823   3.866   0.637   0.437
  198SOL    MW4  824   3.915   0.656   0.367
  199SOL     OW  825   4.409   0.829   0.437
  199SOL    HW2  826   4.316   0.835   0.458
  199SOL    HW3  827   4.432   0.738   0.453
  199SOL    MW4  828   4.400   0.818   0.442
  200SOL     OW  829   3.678   0.847   0.309
  200SOL    HW2  830   3.626   0.777   0.350
  200SOL    HW3  831   3.767   0.812   0.306
  200SOL    MW4  832   3.683   0.833   0.314
  201SOL     OW  833   4.025   1.065   0.437
  201SOL    HW2  834   4.102   1.122   0.440
  201SOL    HW3  835   3.951   1.124   0.447
  201SOL    MW4  836   4.026   1.080   0.439
  202SOL     OW  837   3.792   1.249   0.473
  202SOL    HW2  838   3.726   1.188   0.440
  202SOL    HW3  839   3.778   1.329   0.422
  202SOL    MW4  840   3.781   1.252   0.462
  203SOL     OW  841   3.320   1.661   0.359
  203SOL    HW2  842   3.242   1.657   0.415
  203SOL    HW3  843   3.380   1.597   0.396
  203SOL    MW4  844   3.317   1.652   0.371
  204SOL     OW  845   3.053   1.154   0.394
  204SOL    HW2  846   3.135   1.198   0.415
  204SOL    HW3  847   3.059   1.069   0.438
  204SOL    MW4  848   3.065   1.149   0.403
  205SOL     OW  849   3.781   2.392   0.388
  205SOL    HW2  850   3.819   2.338   0.319
  205SOL    HW3  851   3.811   2.352   0.470
  205SOL    MW4  852   3.790   2.380   0.390
  206SOL     OW  853   4.134   2.980   0.361
  206SOL    HW2  854   4.175   2.893   0.358
  206SOL    HW3  855   4.051   2.966   0.406
  206SOL    MW4  856   4.128   2.967   0.366
  207SOL     OW  857   3.022   2.386   0.390
  207SOL    HW2  858   3.039   2.418   0.479
  207SOL    HW3  859   3.027   2.291   0.397
  207SOL    MW4  860   3.025   2.378   0.403
  208SOL     OW  861   3.006   3.651   0.443
  208SOL    HW2  862   3.101   3.662   0.450
  208SOL    HW3  863   2.995   3.560   0.416
  208SOL    MW4  864   3.017   3.641   0.441
  209SOL     OW  865   3.097   2.852   0.457
  209SOL    HW2  866   3.141   2.781   0.410
  209SOL    HW3  867   3.008   2.821   0.470
  209SOL    MW4  868   3.091   2.839   0.452
  210SOL     OW  869   3.894   2.959   0.510
  210SOL    HW2  870   3.866   2.872   0.481
  210SOL    HW3  871   3.824   3.018   0.484
  210SOL    MW4  872   3.881   2.955   0.503
  211SOL     OW  873   3.771   2.670   0.496
  211SOL    HW2  874   3.773   2.588   0.448
  211SOL    HW3  875   3.680   2.681   0.521
  211SOL    MW4  876   3.759   2.661   0.493
  212SOL     OW  877   3.837   4.100   0.357
  212SOL    HW2  878   3.852   4.015   0.397
  212SOL    HW3  879   3.913   4.153   0.383
  212SOL    MW4  880   3.849   4.096   0.365
  213SOL     OW  881   3.486   2.454   0.453
  213SOL    HW2  882   3.439   2.385   0.499
  213SOL    HW3  883   3.569   2.413   0.427
  213SOL    MW4  884   3.491   2.439   0.456
  214SOL     OW  885   3.296   3.919   0.589
  214SOL    HW2  886   3.351   3.908   0.666
  214SOL    HW3  887   3.311   3.840   0.537
  214SOL    MW4  888   3.306   3.907   0.592
  215SOL     OW  889   4.394   4.033   0.511
  215SOL    HW2  890   4.411   4.009   0.602
  215SOL    HW3  891   4.359   4.122   0.516
  215SOL    MW4  892   4.391   4.042   0.523
  216SOL     OW  893   3.620   4.237   0.436
  216SOL    HW2  894   3.698   4.192   0.403
  216SOL    HW3  895   3.547   4.197   0.390
  216SOL    MW4  896   3.621   4.226   0.426
  217SOL     OW  897   3.624   4.523   0.491
  217SOL    HW2  898   3.610   4.430   0.475
  217SOL    HW3  899   3.698   4.527   0.552
  217SOL    MW4  900   3.632   4.511   0.497
  218SOL     OW  901   4.487   0.059   0.455
  218SOL    HW2  902   4.505  -0.029   0.421
  218SOL    HW3  903   4.465   0.044   0.547
  218SOL    MW4  904   4.486   0.045   0.463
  219SOL     OW  905   4.124   0.805   0.484
  219SOL    HW2  906   4.056   0.750   0.445
  219SOL    HW3  907   4.106   0.893   0.450
  219SOL    MW4  908   4.113   0.810   0.475
  220SOL     OW  909   0.320   2.164   0.307
  220SOL    HW2  910   0.359   2.249   0.328
  220SOL    HW3  911   0.237   2.164   0.354
  220SOL    MW4  912   0.314   2.175   0.316
  221SOL     OW  913   4.243   0.440   0.407
  221SOL    HW2  914   4.271   0.349   0.420
  221SOL    HW3  915   4.322   0.492   0.418
  221SOL    MW4  916   4.257   0.434   0.411
  222SOL     OW  917   4.235   1.207   0.511
  222SOL    HW2  918   4.241   1.303   0.518
  222SOL    HW3  919   4.247   1.175   0.600
  222SOL    MW4  920   4.238   1.216   0.524
  223SOL     OW  921   3.602   0.120   0.408
  223SOL    HW2  922   3.597   0.026   0.392
  223SOL    HW3  923   3.692   0.144   0.384
  223SOL    MW4  924   3.613   0.111   0.403
  224SOL     OW  925   3.555   1.074   0.365
  224SOL    HW2  926   3.621   1.006   0.349
  224SOL    HW3  927   3.536   1.110   0.278
  224SOL    MW4  928   3.561   1.069   0.351
  225SOL     OW  929   4.484   1.124   0.403
  225SOL    HW2  930   4.397   1.157   0.428
  225SOL    HW3  931   4.474   1.029   0.404
  225SOL    MW4  932   4.471   1.116   0.407
  226SOL     OW  933   4.150   2.190   0.396
  226SOL    HW2  934   4.132   2.240   0.476
  226SOL    HW3  935   4.229   2.229   0.360
  226SOL    MW4  936   4.158   2.202   0.402
  227SOL     OW  937   0.309   1.498   0.451
  227SOL    HW2  938   0.303   1.403   0.448
  227SOL    HW3  939   0.218   1.527   0.464
  227SOL    MW4  940   0.296   1.489   0.452
  228SOL     OW  941   0.882   2.433   0.286
  228SOL    HW2  942   0.962   2.485   0.274
  228SOL    HW3  943   0.817   2.477   0.233
  228SOL    MW4  944   0.884   2.446   0.278
  229SOL     OW  945   4.253   1.913   0.507
  229SOL    HW2  946   4.331   1.892   0.455
  229SOL    HW3  947   4.207   1.978   0.454
  229SOL    MW4  948   4.258   1.919   0.493
  230SOL     OW  949   4.483   2.550   0.463
  230SOL    HW2  950   4.544   2.624   0.469
  230SOL    HW3  951   4.481   2.514   0.552
  230SOL    MW4  952   4.491   2.555   0.476
  231SOL     OW  953   4.288   3.601   0.461
  231SOL    HW2  954   4.363   3.559   0.420
  231SOL    HW3  955   4.218   3.535   0.459
  231SOL    MW4  956   4.288   3.587   0.455
  232SOL     OW  957   4.242   2.733   0.473
  232SOL    HW2  958   4.166   2.683   0.502
  232SOL    HW3  959   4.316   2.673   0.484
  232SOL    MW4  960   4.242   2.719   0.478
  233SOL     OW  961   0.305   3.852   0.384
  233SOL    HW2  962   0.255   3.933   0.384
  233SOL    HW3  963   0.390   3.876   0.420
  233SOL    MW4  964   0.310   3.866   0.389
  234SOL     OW  965   0.055   3.498   0.340
  234SOL    HW2  966   0.104   3.520   0.261
  234SOL    HW3  967   0.096   3.550   0.409
  234SOL    MW4  968   0.067   3.507   0.339
  235SOL     OW  969   4.488   3.221   0.384
  235SOL    HW2  970   4.407   3.217   0.332
  235SOL    HW3  971   4.526   3.306   0.362
  235SOL    MW4  972   4.482   3.232   0.374
  236SOL     OW  973   3.918   3.880   0.500
  236SOL    HW2  974   3.880   3.800   0.536
  236SOL    HW3  975   4.006   3.856   0.474
  236SOL    MW4  976   3.925   3.866   0.502
  237SOL     OW  977   3.685   3.159   0.453
  237SOL    HW2  978   3.716   3.246   0.429
  237SOL    HW3  979   3.593   3.172   0.476
  237SOL    MW4  980   3.677   3.172   0.453
  238SOL     OW  981   0.149   4.102   0.379
  238SOL    HW2  982   0.079   4.056   0.426
  238SOL    HW3  983   0.103   4.149   0.309
  238SOL    MW4  984   0.134   4.102   0.376
  239SOL     OW  985   4.057   4.281   0.389
  239SOL    HW2  986   4.152   4.287   0.401
  239SOL    HW3  987   4.029   4.371   0.374
  239SOL    MW4  988   4.066   4.294   0.388
  240SOL     OW  989   4.108   4.338   0.720
  240SOL    HW2  990   4.024   4.372   0.689
  240SOL    HW3  991   4.154   4.414   0.755
  240SOL    MW4  992   4.103   4.352   0.721
  241SOL     OW  993   4.007   4.661   0.416
  241SOL    HW2  994   3.952   4.734   0.387
  241SOL    HW3  995   3.952   4.613   0.478
  241SOL    MW4  996   3.992   4.664   0.421
  242SOL     OW  997   0.227   4.620   0.831
  242SOL    HW2  998   0.238   4.531   0.798
  242SOL    HW3  999   0.144   4.649   0.794
  242SOL    MW4 1000   0.217   4.612   0.822
  243SOL     OW 1001   4.475   0.029   0.730
  243SOL    HW2 1002   4.396  -0.008   0.771
  243SOL    HW3 1003   4.462   0.124   0.735
  243SOL    MW4 1004   4.463   0.037   0.736
  244SOL     OW 1005   4.477   0.318   0.765
  244SOL    HW2 1006   4.459   0.346   0.854
  244SOL    HW3 1007   4.566   0.350   0.747
  244SOL    MW4 1008   4.486   0.326   0.774
  245SOL     OW 1009   0.225   0.460   0.697
  245SOL    HW2 1010   0.291   0.407   0.742
  245SOL    HW3 1011   0.231   0.546   0.740
  245SOL    MW4 1012   0.235   0.465   0.709
  246SOL     OW 1013   0.241   0.727   0.823
  246SOL    HW2 1014   0.226   0.749   0.915
  246SOL    HW3 1015   0.158   0.744   0.780
  246SOL    MW4 1016   0.228   0.732   0.830
  247SOL     OW 1017   4.476   0.822   0.721
  247SOL    HW2 1018   4.385   0.798   0.741
  247SOL    HW3 1019   4.476   0.840   0.627
  247SOL    MW4 1020   4.464   0.821   0.712
  248SOL     OW 1021   0.018   1.082   0.855
  248SOL    HW2 1022   0.017   1.083   0.951
  248SOL    HW3 1023  -0.013   0.995   0.831
  248SOL    MW4 1024   0.014   1.071   0.864
  249SOL     OW 1025   0.230   1.241   0.748
  249SOL    HW2 1026   0.151   1.199   0.782
  249SOL    HW3 1027   0.232   1.217   0.656
  249SOL    MW4 1028   0.220   1.233   0.741
  250SOL     OW 1029   0.214   1.506   0.814
  250SOL    HW2 1030   0.292   1.539   0.769
  250SOL    HW3 1031   0.214   1.411   0.796
  250SOL    MW4 1032   0.224   1.498   0.805
  251SOL     OW 1033   0.015   1.688   0.785
  251SOL    HW2 1034  -0.054   1.668   0.849
  251SOL    HW3 1035   0.083   1.622   0.800
  251SOL    MW4 1036   0.015   1.677   0.795
  252SOL     OW 1037   0.035   1.946   0.852
  252SOL    HW2 1038   0.117   1.983   0.817
  252SOL    HW3 1039   0.036   1.856   0.821
  252SOL    MW4 1040   0.046   1.939   0.843
  253SOL     OW 1041   0.232   2.069   0.691
  253SOL    HW2 1042   0.219   2.148   0.744
  253SOL    HW3 1043   0.187   2.087   0.609
  253SOL    MW4 1044   0.225   2.082   0.687
  254SOL     OW 1045   0.224   2.314   0.809
  254SOL    HW2 1046   0.221   2.338   0.901
  254SOL    HW3 1047   0.296   2.365   0.772
  254SOL    MW4 1048   0.233   2.324   0.816
  255SOL     OW 1049   4.466   2.434   0.735
  255SOL    HW2 1050   4.395   2.376   0.763
  255SOL    HW3 1051   4.546   2.384   0.751
  255SOL    MW4 1052   4.467   2.420   0.741
  256SOL     OW 1053   0.008   2.713   0.790
  256SOL    HW2 1054   0.024   2.713   0.885
  256SOL    HW3 1055  -0.006   2.621   0.768
  256SOL    MW4 1056   0.008   2.701   0.800
  257SOL     OW 1057   0.219   2.847   0.679
  257SOL    HW2 1058   0.144   2.809   0.726
  257SOL    HW3 1059   0.202   2.827   0.587
  257SOL    MW4 1060   0.207   2.839   0.673
  258SOL     OW 1061   0.179   3.102   0.805
  258SOL    HW2 1062   0.191   3.090   0.899
  258SOL    HW3 1063   0.194   3.015   0.767
  258SOL    MW4 1064   0.182   3.089   0.812
  259SOL     OW 1065   4.436   3.209   0.688
  259SOL    HW2 1066   4.516   3.167   0.719
  259SOL    HW3 1067   4.447   3.214   0.593
  259SOL    MW4 1068   4.448   3.204   0.680
  260SOL     OW 1069   4.464   3.459   0.805
  260SOL    HW2 1070   4.383   3.510   0.799
  260SOL    HW3 1071   4.449   3.384   0.747
  260SOL    MW4 1072   4.451   3.456   0.797
  261SOL     OW 1073   0.229   3.578   0.796
  261SOL    HW2 1074   0.140   3.552   0.818
  261SOL    HW3 1075   0.226   3.597   0.702
  261SOL    MW4 1076   0.217   3.577   0.786
  262SOL     OW 1077   0.211   3.847   0.866
  262SOL    HW2 1078   0.203   3.857   0.960
  262SOL    HW3 1079   0.218   3.752   0.852
  262SOL    MW4 1080   0.211   3.836   0.876
  263SOL     OW 1081   4.468   3.985   0.757
  263SOL    HW2 1082   4.396   3.942   0.805
  263SOL    HW3 1083   4.547   3.942   0.790
  263SOL    MW4 1084   4.469   3.973   0.768
  264SOL     OW 1085   4.487   4.251   0.777
  264SOL    HW2 1086   4.431   4.267   0.852
  264SOL    HW3 1087   4.489   4.156   0.769
  264SOL    MW4 1088   4.480   4.241   0.786
  265SOL     OW 1089   0.255   4.363   0.740
  265SOL    HW2 1090   0.165   4.331   0.742
  265SOL    HW3 1091   0.278   4.363   0.648
  265SOL    MW4 1092   0.246   4.359   0.728
  266SOL     OW 1093   0.660   4.621   0.799
  266SOL    HW2 1094   0.658   4.642   0.893
  266SOL    HW3 1095   0.595   4.680   0.760
  266SOL    MW4 1096   0.651   4.631   0.807
  267SOL     OW 1097   0.434   0.103   0.705
  267SOL    HW2 1098   0.367   0.053   0.751
  267SOL    HW3 1099   0.421   0.081   0.612
  267SOL    MW4 1100   0.424   0.094   0.699
  268SOL     OW 1101   0.398   0.314   0.856
  268SOL    HW2 1102   0.480   0.364   0.854
  268SOL    HW3 1103   0.412   0.242   0.795
  268SOL    MW4 1104   0.411   0.311   0.848
  269SOL     OW 1105   0.641   0.432   0.782
  269SOL    HW2 1106   0.721   0.394   0.818
  269SOL    HW3 1107   0.639   0.403   0.691
  269SOL    MW4 1108   0.651   0.423   0.775
  270SOL     OW 1109   0.683   0.735   0.840
  270SOL    HW2 1110   0.603   0.756   0.792
  270SOL    HW3 1111   0.691   0.639   0.833
  270SOL    MW4 1112   0.674   0.725   0.833
  271SOL     OW 1113   0.460   0.853   0.722
  271SOL    HW2 1114   0.453   0.947   0.738
  271SOL    HW3 1115   0.387   0.815   0.770
  271SOL    MW4 1116   0.450   0.861   0.731
  272SOL     OW 1117   0.472   1.147   0.854
  272SOL    HW2 1118   0.548   1.185   0.810
  272SOL    HW3 1119   0.397   1.192   0.816
  272SOL    MW4 1120   0.472   1.158   0.843
  273SOL     OW 1121   0.710   1.256   0.725
  273SOL    HW2 1122   0.686   1.348   0.738
  273SOL    HW3 1123   0.704   1.243   0.630
  273SOL    MW4 1124   0.706   1.267   0.714
  274SOL     OW 1125   0.671   1.529   0.790
  274SOL    HW2 1126   0.661   1.544   0.884
  274SOL    HW3 1127   0.588   1.558   0.752
  274SOL    MW4 1128   0.659   1.535   0.798
  275SOL     OW 1129   0.416   1.632   0.671
  275SOL    HW2 1130   0.423   1.724   0.643
  275SOL    HW3 1131   0.400   1.584   0.590
  275SOL    MW4 1132   0.415   1.638   0.656
  276SOL     OW 1133   0.450   1.909   0.624
  276SOL    HW2 1134   0.369   1.953   0.652
  276SOL    HW3 1135   0.469   1.947   0.538
  276SOL    MW4 1136   0.442   1.920   0.616
  277SOL     OW 1137   0.602   2.037   0.830
  277SOL    HW2 1138   0.559   2.009   0.911
  277SOL    HW3 1139   0.552   1.995   0.760
  277SOL    MW4 1140   0.590   2.028   0.831
  278SOL     OW 1141   0.666   2.301   0.688
  278SOL    HW2 1142   0.734   2.351   0.732
  278SOL    HW3 1143   0.652   2.224   0.744
  278SOL    MW4 1144   0.673   2.297   0.701
  279SOL     OW 1145   0.424   2.442   0.658
  279SOL    HW2 1146   0.509   2.399   0.673
  279SOL    HW3 1147   0.406   2.428   0.565
  279SOL    MW4 1148   0.433   2.434   0.648
  280SOL     OW 1149   0.405   2.690   0.800
  280SOL    HW2 1150   0.410   2.610   0.749
  280SOL    HW3 1151   0.356   2.751   0.745
  280SOL    MW4 1152   0.399   2.687   0.786
  281SOL     OW 1153   0.677   2.828   0.762
  281SOL    HW2 1154   0.755   2.774   0.771
  281SOL    HW3 1155   0.607   2.776   0.802
  281SOL    MW4 1156   0.678   2.814   0.768
  282SOL     OW 1157   0.681   3.088   0.870
  282SOL    HW2 1158   0.590   3.104   0.843
  282SOL    HW3 1159   0.695   2.996   0.852
  282SOL    MW4 1160   0.671   3.078   0.864
  283SOL     OW 1161   0.435   3.171   0.792
  283SOL    HW2 1162   0.448   3.265   0.788
  283SOL    HW3 1163   0.341   3.160   0.810
  283SOL    MW4 1164   0.424   3.182   0.794
  284SOL     OW 1165   0.468   3.436   0.821
  284SOL    HW2 1166   0.492   3.452   0.913
  284SOL    HW3 1167   0.381   3.474   0.812
  284SOL    MW4 1168   0.460   3.443   0.832
  285SOL     OW 1169   0.694   3.563   0.735
  285SOL    HW2 1170   0.607   3.526   0.744
  285SOL    HW3 1171   0.691   3.643   0.788
  285SOL    MW4 1172   0.682   3.569   0.743
  286SOL     OW 1173   0.665   3.829   0.832
  286SOL    HW2 1174   0.735   3.890   0.811
  286SOL    HW3 1175   0.594   3.851   0.772
  286SOL    MW4 1176   0.665   3.840   0.821
  287SOL     OW 1177   0.441   3.965   0.730
  287SOL    HW2 1178   0.449   4.047   0.778
  287SOL    HW3 1179   0.366   3.922   0.769
  287SOL    MW4 1180   0.432   3.970   0.742
  288SOL     OW 1181   0.449   4.203   0.884
  288SOL    HW2 1182   0.453   4.227   0.977
  288SOL    HW3 1183   0.374   4.250   0.849
  288SOL    MW4 1184   0.440   4.212   0.892
  289SOL     OW 1185   0.674   4.331   0.748
  289SOL    HW2 1186   0.597   4.300   0.796
  289SOL    HW3 1187   0.668   4.426   0.754
  289SOL    MW4 1188   0.663   4.339   0.755
  290SOL     OW 1189   1.116   4.659   0.893
  290SOL    HW2 1190   1.190   4.698   0.847
  290SOL    HW3 1191   1.039   4.689   0.844
  290SOL    MW4 1192   1.115   4.668   0.881
  291SOL     OW 1193   0.907   0.086   0.735
  291SOL    HW2 1194   0.904   0.170   0.781
  291SOL    HW3 1195   0.826   0.042   0.763
  291SOL    MW4 1196   0.896   0.091   0.745
  292SOL     OW 1197   0.887   0.325   0.864
  292SOL    HW2 1198   0.887   0.330   0.960
  292SOL    HW3 1199   0.946   0.395   0.836
  292SOL    MW4 1200   0.895   0.335   0.873
  293SOL     OW 1201   1.102   0.495   0.757
  293SOL    HW2 1202   1.181   0.457   0.794
  293SOL    HW3 1203   1.106   0.475   0.664
  293SOL    MW4 1204   1.113   0.488   0.750
  294SOL     OW 1205   1.121   0.749   0.829
  294SOL    HW2 1206   1.116   0.746   0.925
  294SOL    HW3 1207   1.110   0.658   0.802
  294SOL    MW4 1208   1.119   0.737   0.838
  295SOL     OW 1209   0.892   0.861   0.731
  295SOL    HW2 1210   0.971   0.813   0.756
  295SOL    HW3 1211   0.820   0.806   0.761
  295SOL    MW4 1212   0.892   0.847   0.738
  296SOL     OW 1213   0.925   1.109   0.846
  296SOL    HW2 1214   0.919   1.020   0.813
  296SOL    HW3 1215   0.853   1.155   0.803
  296SOL    MW4 1216   0.915   1.103   0.836
  297SOL     OW 1217   1.151   1.225   0.746
  297SOL    HW2 1218   1.071   1.198   0.792
  297SOL    HW3 1219   1.136   1.200   0.655
  297SOL    MW4 1220   1.138   1.218   0.740
  298SOL     OW 1221   1.169   1.496   0.818
  298SOL    HW2 1222   1.086   1.540   0.798
  298SOL    HW3 1223   1.163   1.412   0.773
  298SOL    MW4 1224   1.158   1.491   0.809
  299SOL     OW 1225   0.936   1.631   0.763
  299SOL    HW2 1226   0.922   1.722   0.790
  299SOL    HW3 1227   0.848   1.595   0.753
  299SOL    MW4 1228   0.923   1.638   0.765
  300SOL     OW 1229   0.861   1.931   0.803
  300SOL    HW2 1230   0.891   1.933   0.894
  300SOL    HW3 1231   0.768   1.954   0.808
  300SOL    MW4 1232   0.853   1.934   0.815
  301SOL     OW 1233   1.108   2.062   0.717
  301SOL    HW2 1234   1.118   2.143   0.767
  301SOL    HW3 1235   1.019   2.033   0.735
  301SOL    MW4 1236   1.097   2.069   0.726
  302SOL     OW 1237   1.129   2.288   0.868
  302SOL    HW2 1238   1.148   2.306   0.960
  302SOL    HW3 1239   1.177   2.354   0.819
  302SOL    MW4 1240   1.138   2.299   0.874
  303SOL     OW 1241   0.863   2.402   0.880
  303SOL    HW2 1242   0.941   2.350   0.862
  303SOL    HW3 1243   0.829   2.365   0.962
  303SOL    MW4 1244   0.869   2.390   0.888
  304SOL     OW 1245   0.894   2.678   0.833
  304SOL    HW2 1246   0.898   2.700   0.926
  304SOL    HW3 1247   0.880   2.583   0.831
  304SOL    MW4 1248   0.893   2.668   0.845
  305SOL     OW 1249   1.123   2.790   0.707
  305SOL    HW2 1250   1.058   2.753   0.766
  305SOL    HW3 1251   1.087   2.777   0.619
  305SOL    MW4 1252   1.110   2.783   0.703
  306SOL     OW 1253   1.126   3.045   0.811
  306SOL    HW2 1254   1.054   3.087   0.764
  306SOL    HW3 1255   1.151   2.971   0.756
  306SOL    MW4 1256   1.120   3.041   0.797
  307SOL     OW 1257   0.889   3.177   0.720
  307SOL    HW2 1258   0.891   3.263   0.762
  307SOL    HW3 1259   0.824   3.128   0.770
  307SOL    MW4 1260   0.881   3.182   0.732
  308SOL     OW 1261   0.906   3.426   0.848
  308SOL    HW2 1262   0.982   3.481   0.829
  308SOL    HW3 1263   0.833   3.470   0.805
  308SOL    MW4 1264   0.907   3.439   0.840
  309SOL     OW 1265   1.108   3.603   0.774
  309SOL    HW2 1266   1.194   3.571   0.800
  309SOL    HW3 1267   1.112   3.606   0.678
  309SOL    MW4 1268   1.120   3.599   0.764
  310SOL     OW 1269   1.156   3.863   0.866
  310SOL    HW2 1270   1.132   3.867   0.959
  310SOL    HW3 1271   1.150   3.771   0.844
  310SOL    MW4 1272   1.152   3.852   0.876
  311SOL     OW 1273   0.907   3.989   0.782
  311SOL    HW2 1274   0.920   4.073   0.825
  311SOL    HW3 1275   0.990   3.942   0.796
  311SOL    MW4 1276   0.920   3.994   0.790
  312SOL     OW 1277   0.904   4.243   0.875
  312SOL    HW2 1278   0.976   4.301   0.850
  312SOL    HW3 1279   0.828   4.277   0.828
  312SOL    MW4 1280   0.903   4.255   0.866
  313SOL     OW 1281   1.127   4.400   0.794
  313SOL    HW2 1282   1.213   4.378   0.829
  313SOL    HW3 1283   1.117   4.493   0.810
  313SOL    MW4 1284   1.137   4.409   0.800
  314SOL     OW 1285   1.560   4.639   0.898
  314SOL    HW2 1286   1.554   4.636   0.993
  314SOL    HW3 1287   1.474   4.673   0.870
  314SOL    MW4 1288   1.548   4.643   0.907
  315SOL     OW 1289   1.341   0.115   0.796
  315SOL    HW2 1290   1.328   0.205   0.823
  315SOL    HW3 1291   1.376   0.121   0.707
  315SOL    MW4 1292   1.344   0.127   0.788
  316SOL     OW 1293   1.334   0.397   0.854
  316SOL    HW2 1294   1.331   0.408   0.949
  316SOL    HW3 1295   1.420   0.429   0.829
  316SOL    MW4 1296   1.345   0.403   0.864
  317SOL     OW 1297   1.590   0.476   0.768
  317SOL    HW2 1298   1.592   0.568   0.794
  317SOL    HW3 1299   1.681   0.447   0.777
  317SOL    MW4 1300   1.603   0.484   0.772
  318SOL     OW 1301   1.593   0.740   0.862
  318SOL    HW2 1302   1.667   0.788   0.825
  318SOL    HW3 1303   1.519   0.761   0.805
  318SOL    MW4 1304   1.593   0.749   0.849
  319SOL     OW 1305   1.357   0.847   0.717
  319SOL    HW2 1306   1.355   0.936   0.751
  319SOL    HW3 1307   1.281   0.804   0.756
  319SOL    MW4 1308   1.347   0.853   0.726
  320SOL     OW 1309   1.383   1.106   0.852
  320SOL    HW2 1310   1.447   1.164   0.811
  320SOL    HW3 1311   1.299   1.151   0.842
  320SOL    MW4 1312   1.380   1.119   0.846
  321SOL     OW 1313   1.584   1.256   0.720
  321SOL    HW2 1314   1.596   1.350   0.712
  321SOL    HW3 1315   1.605   1.221   0.634
  321SOL    MW4 1316   1.588   1.263   0.708
  322SOL     OW 1317   1.768   1.692   0.880
  322SOL    HW2 1318   1.730   1.653   0.958
  322SOL    HW3 1319   1.845   1.637   0.861
  322SOL    MW4 1320   1.773   1.679   0.888
  323SOL     OW 1321   1.354   1.650   0.681
  323SOL    HW2 1322   1.361   1.734   0.726
  323SOL    HW3 1323   1.276   1.609   0.718
  323SOL    MW4 1324   1.345   1.656   0.692
  324SOL     OW 1325   1.332   1.901   0.823
  324SOL    HW2 1326   1.341   1.910   0.918
  324SOL    HW3 1327   1.255   1.954   0.801
  324SOL    MW4 1328   1.323   1.909   0.833
  325SOL     OW 1329   1.509   2.078   0.709
  325SOL    HW2 1330   1.447   2.019   0.752
  325SOL    HW3 1331   1.501   2.057   0.616
  325SOL    MW4 1332   1.500   2.067   0.702
  326SOL     OW 1333   1.539   2.312   0.850
  326SOL    HW2 1334   1.466   2.366   0.822
  326SOL    HW3 1335   1.529   2.230   0.801
  326SOL    MW4 1336   1.528   2.308   0.840
  327SOL     OW 1337   1.303   2.457   0.742
  327SOL    HW2 1338   1.326   2.548   0.762
  327SOL    HW3 1339   1.312   2.451   0.647
  327SOL    MW4 1340   1.307   2.468   0.732
  328SOL     OW 1341   1.368   2.709   0.798
  328SOL    HW2 1342   1.369   2.733   0.891
  328SOL    HW3 1343   1.281   2.734   0.767
  328SOL    MW4 1344   1.357   2.716   0.806
  329SOL     OW 1345   1.587   2.837   0.717
  329SOL    HW2 1346   1.578   2.915   0.772
  329SOL    HW3 1347   1.508   2.786   0.736
  329SOL    MW4 1348   1.575   2.840   0.727
  330SOL     OW 1349   1.568   3.077   0.860
  330SOL    HW2 1350   1.551   3.089   0.953
  330SOL    HW3 1351   1.490   3.111   0.816
  330SOL    MW4 1352   1.555   3.083   0.866
  331SOL     OW 1353   1.351   3.199   0.761
  331SOL    HW2 1354   1.266   3.157   0.774
  331SOL    HW3 1355   1.360   3.206   0.666
  331SOL    MW4 1356   1.341   3.194   0.750
  332SOL     OW 1357   1.351   3.473   0.868
  332SOL    HW2 1358   1.427   3.516   0.829
  332SOL    HW3 1359   1.357   3.382   0.839
  332SOL    MW4 1360   1.362   3.466   0.859
  333SOL     OW 1361   1.550   3.625   0.720
  333SOL    HW2 1362   1.634   3.588   0.750
  333SOL    HW3 1363   1.555   3.619   0.624
  333SOL    MW4 1364   1.562   3.619   0.711
  334SOL     OW 1365   1.569   3.894   0.860
  334SOL    HW2 1366   1.493   3.942   0.826
  334SOL    HW3 1367   1.571   3.813   0.810
  334SOL    MW4 1368   1.559   3.890   0.849
  335SOL     OW 1369   1.345   4.040   0.757
  335SOL    HW2 1370   1.269   3.985   0.780
  335SOL    HW3 1371   1.345   4.041   0.662
  335SOL    MW4 1372   1.335   4.033   0.748
  336SOL     OW 1373   1.373   4.291   0.873
  336SOL    HW2 1374   1.448   4.322   0.822
  336SOL    HW3 1375   1.364   4.199   0.850
  336SOL    MW4 1376   1.381   4.283   0.863
  337SOL     OW 1377   1.604   4.421   0.748
  337SOL    HW2 1378   1.691   4.389   0.771
  337SOL    HW3 1379   1.594   4.503   0.797
  337SOL    MW4 1380   1.614   4.427   0.758
  338SOL     OW 1381   1.784   0.102   0.779
  338SOL    HW2 1382   1.855   0.039   0.774
  338SOL    HW3 1383   1.719   0.061   0.837
  338SOL    MW4 1384   1.785   0.088   0.786
  339SOL     OW 1385   1.668   0.115   0.515
  339SOL    HW2 1386   1.576   0.097   0.534
  339SOL    HW3 1387   1.709   0.123   0.602
  339SOL    MW4 1388   1.661   0.114   0.529
  340SOL     OW 1389   1.826   0.370   0.812
  340SOL    HW2 1390   1.829   0.276   0.797
  340SOL    HW3 1391   1.904   0.404   0.767
  340SOL    MW4 1392   1.837   0.362   0.804
  341SOL     OW 1393   2.040   0.500   0.675
  341SOL    HW2 1394   2.019   0.458   0.591
  341SOL    HW3 1395   2.107   0.444   0.714
  341SOL    MW4 1396   2.046   0.487   0.669
  342SOL     OW 1397   2.048   0.710   0.865
  342SOL    HW2 1398   2.121   0.758   0.826
  342SOL    HW3 1399   2.031   0.638   0.803
  342SOL    MW4 1400   2.055   0.707   0.851
  343SOL     OW 1401   1.830   0.845   0.737
  343SOL    HW2 1402   1.830   0.937   0.762
  343SOL    HW3 1403   1.909   0.809   0.778
  343SOL    MW4 1404   1.841   0.852   0.746
  344SOL     OW 1405   1.797   1.118   0.830
  344SOL    HW2 1406   1.872   1.173   0.804
  344SOL    HW3 1407   1.721   1.165   0.796
  344SOL    MW4 1408   1.797   1.132   0.822
  345SOL     OW 1409   1.983   1.291   0.756
  345SOL    HW2 1410   2.059   1.255   0.801
  345SOL    HW3 1411   2.002   1.280   0.663
  345SOL    MW4 1412   1.996   1.285   0.750
  346SOL     OW 1413   2.005   1.551   0.875
  346SOL    HW2 1414   2.082   1.586   0.831
  346SOL    HW3 1415   1.987   1.468   0.830
  346SOL    MW4 1416   2.013   1.544   0.863
  347SOL     OW 1417   1.806   1.335   0.347
  347SOL    HW2 1418   1.817   1.317   0.253
  347SOL    HW3 1419   1.757   1.417   0.350
  347SOL    MW4 1420   1.801   1.343   0.335
  348SOL     OW 1421   1.746   1.976   0.853
  348SOL    HW2 1422   1.743   1.882   0.839
  348SOL    HW3 1423   1.669   2.010   0.807
  348SOL    MW4 1424   1.735   1.968   0.845
  349SOL     OW 1425   1.966   2.124   0.695
  349SOL    HW2 1426   2.012   2.199   0.734
  349SOL    HW3 1427   1.911   2.090   0.766
  349SOL    MW4 1428   1.965   2.129   0.709
  350SOL     OW 1429   2.037   2.364   0.837
  350SOL    HW2 1430   2.035   2.366   0.933
  350SOL    HW3 1431   1.960   2.415   0.811
  350SOL    MW4 1432   2.027   2.371   0.846
  351SOL     OW 1433   1.770   2.452   0.749
  351SOL    HW2 1434   1.688   2.407   0.772
  351SOL    HW3 1435   1.767   2.461   0.654
  351SOL    MW4 1436   1.759   2.447   0.740
  352SOL     OW 1437   1.798   2.696   0.849
  352SOL    HW2 1438   1.792   2.606   0.819
  352SOL    HW3 1439   1.724   2.740   0.808
  352SOL    MW4 1440   1.788   2.690   0.840
  353SOL     OW 1441   2.014   2.873   0.781
  353SOL    HW2 1442   2.089   2.822   0.811
  353SOL    HW3 1443   1.938   2.828   0.819
  353SOL    MW4 1444   2.014   2.860   0.790
  354SOL     OW 1445   2.034   3.141   0.803
  354SOL    HW2 1446   1.946   3.170   0.779
  354SOL    HW3 1447   2.028   3.046   0.804
  354SOL    MW4 1448   2.021   3.132   0.800
  355SOL     OW 1449   1.779   3.219   0.737
  355SOL    HW2 1450   1.710   3.186   0.795
  355SOL    HW3 1451   1.753   3.191   0.650
  355SOL    MW4 1452   1.767   3.211   0.733
  356SOL     OW 1453   1.793   3.496   0.794
  356SOL    HW2 1454   1.784   3.499   0.889
  356SOL    HW3 1455   1.780   3.404   0.771
  356SOL    MW4 1456   1.791   3.484   0.803
  357SOL     OW 1457   2.050   3.617   0.731
  357SOL    HW2 1458   2.045   3.703   0.772
  357SOL    HW3 1459   1.968   3.574   0.756
  357SOL    MW4 1460   2.039   3.622   0.740
  358SOL     OW 1461   2.042   3.874   0.832
  358SOL    HW2 1462   2.042   3.874   0.927
  358SOL    HW3 1463   1.965   3.925   0.807
  358SOL    MW4 1464   2.032   3.881   0.841
  359SOL     OW 1465   1.802   4.039   0.769
  359SOL    HW2 1466   1.725   3.996   0.805
  359SOL    HW3 1467   1.799   4.019   0.675
  359SOL    MW4 1468   1.791   4.031   0.761
  360SOL     OW 1469   1.849   4.301   0.812
  360SOL    HW2 1470   1.839   4.304   0.907
  360SOL    HW3 1471   1.843   4.208   0.791
  360SOL    MW4 1472   1.847   4.289   0.822
  361SOL     OW 1473   2.067   4.397   0.673
  361SOL    HW2 1474   1.999   4.347   0.717
  361SOL    HW3 1475   2.033   4.412   0.585
  361SOL    MW4 1476   2.054   4.392   0.667
  362SOL     OW 1477   2.689   0.119   0.688
  362SOL    HW2 1478   2.609   0.068   0.695
  362SOL    HW3 1479   2.668   0.204   0.728
  362SOL    MW4 1480   2.676   0.124   0.694
  363SOL     OW 1481   2.314   0.076   0.820
  363SOL    HW2 1482   2.364   0.035   0.890
  363SOL    HW3 1483   2.225   0.041   0.829
  363SOL    MW4 1484   2.309   0.066   0.830
  364SOL     OW 1485   2.239   0.350   0.807
  364SOL    HW2 1486   2.315   0.397   0.772
  364SOL    HW3 1487   2.268   0.258   0.811
  364SOL    MW4 1488   2.253   0.344   0.803
  365SOL     OW 1489   2.460   0.478   0.669
  365SOL    HW2 1490   2.471   0.474   0.574
  365SOL    HW3 1491   2.542   0.442   0.704
  365SOL    MW4 1492   2.472   0.473   0.661
  366SOL     OW 1493   2.417   0.771   0.660
  366SOL    HW2 1494   2.458   0.779   0.574
  366SOL    HW3 1495   2.415   0.677   0.677
  366SOL    MW4 1496   2.422   0.759   0.651
  367SOL     OW 1497   2.210   0.931   0.725
  367SOL    HW2 1498   2.293   0.884   0.723
  367SOL    HW3 1499   2.186   0.942   0.633
  367SOL    MW4 1500   2.218   0.926   0.712
  368SOL     OW 1501   2.235   1.183   0.852
  368SOL    HW2 1502   2.242   1.171   0.947
  368SOL    HW3 1503   2.243   1.094   0.817
  368SOL    MW4 1504   2.237   1.169   0.860
  369SOL     OW 1505   2.471   1.299   0.790
  369SOL    HW2 1506   2.379   1.286   0.812
  369SOL    HW3 1507   2.473   1.299   0.694
  369SOL    MW4 1508   2.459   1.297   0.780
  370SOL     OW 1509   2.451   1.577   0.855
  370SOL    HW2 1510   2.525   1.622   0.812
  370SOL    HW3 1511   2.462   1.485   0.831
  370SOL    MW4 1512   2.462   1.571   0.846
  371SOL     OW 1513   2.218   1.671   0.739
  371SOL    HW2 1514   2.308   1.644   0.756
  371SOL    HW3 1515   2.201   1.642   0.649
  371SOL    MW4 1516   2.228   1.663   0.729
  372SOL     OW 1517   2.160   1.937   0.826
  372SOL    HW2 1518   2.170   1.847   0.796
  372SOL    HW3 1519   2.113   1.981   0.755
  372SOL    MW4 1520   2.155   1.931   0.813
  373SOL     OW 1521   2.435   2.007   0.792
  373SOL    HW2 1522   2.347   1.972   0.805
  373SOL    HW3 1523   2.459   1.979   0.704
  373SOL    MW4 1524   2.427   1.998   0.782
  374SOL     OW 1525   2.443   2.298   0.848
  374SOL    HW2 1526   2.529   2.316   0.810
  374SOL    HW3 1527   2.426   2.206   0.827
  374SOL    MW4 1528   2.452   2.289   0.840
  375SOL     OW 1529   2.243   2.449   0.704
  375SOL    HW2 1530   2.315   2.408   0.753
  375SOL    HW3 1531   2.164   2.424   0.753
  375SOL    MW4 1532   2.242   2.440   0.717
  376SOL     OW 1533   2.250   2.712   0.828
  376SOL    HW2 1534   2.285   2.715   0.917
  376SOL    HW3 1535   2.277   2.626   0.794
  376SOL    MW4 1536   2.258   2.701   0.835
  377SOL     OW 1537   2.480   2.849   0.745
  377SOL    HW2 1538   2.541   2.782   0.776
  377SOL    HW3 1539   2.393   2.811   0.759
  377SOL    MW4 1540   2.477   2.835   0.751
  378SOL     OW 1541   2.480   3.116   0.869
  378SOL    HW2 1542   2.499   3.120   0.962
  378SOL    HW3 1543   2.466   3.023   0.851
  378SOL    MW4 1544   2.480   3.105   0.879
  379SOL     OW 1545   2.270   3.246   0.742
  379SOL    HW2 1546   2.181   3.223   0.770
  379SOL    HW3 1547   2.327   3.209   0.809
  379SOL    MW4 1548   2.265   3.238   0.754
  380SOL     OW 1549   2.281   3.507   0.811
  380SOL    HW2 1550   2.286   3.423   0.767
  380SOL    HW3 1551   2.205   3.550   0.773
  380SOL    MW4 1552   2.272   3.502   0.800
  381SOL     OW 1553   2.507   3.617   0.701
  381SOL    HW2 1554   2.578   3.570   0.745
  381SOL    HW3 1555   2.427   3.578   0.738
  381SOL    MW4 1556   2.506   3.605   0.712
  382SOL     OW 1557   2.477   3.868   0.813
  382SOL    HW2 1558   2.398   3.903   0.773
  382SOL    HW3 1559   2.498   3.790   0.762
  382SOL    MW4 1560   2.469   3.862   0.801
  383SOL     OW 1561   2.247   4.005   0.726
  383SOL    HW2 1562   2.189   3.948   0.777
  383SOL    HW3 1563   2.221   3.991   0.635
  383SOL    MW4 1564   2.236   3.995   0.721
  384SOL     OW 1565   2.268   4.262   0.835
  384SOL    HW2 1566   2.264   4.176   0.794
  384SOL    HW3 1567   2.211   4.317   0.780
  384SOL    MW4 1568   2.260   4.258   0.822
  385SOL     OW 1569   2.546   4.214   0.873
  385SOL    HW2 1570   2.557   4.253   0.960
  385SOL    HW3 1571   2.452   4.218   0.856
  385SOL    MW4 1572   2.535   4.220   0.882
  386SOL     OW 1573   2.897   4.638   0.837
  386SOL    HW2 1574   2.860   4.549   0.836
  386SOL    HW3 1575   2.835   4.690   0.787
  386SOL    MW4 1576   2.884   4.633   0.830
  387SOL     OW 1577   2.649   4.426   0.548
  387SOL    HW2 1578   2.716   4.479   0.505
  387SOL    HW3 1579   2.582   4.489   0.575
  387SOL    MW4 1580   2.649   4.442   0.546
  388SOL     OW 1581   2.682   0.376   0.792
  388SOL    HW2 1582   2.695   0.378   0.887
  388SOL    HW3 1583   2.768   0.395   0.755
  388SOL    MW4 1584   2.695   0.379   0.800
  389SOL     OW 1585   2.925   0.487   0.706
  389SOL    HW2 1586   2.994   0.432   0.742
  389SOL    HW3 1587   2.960   0.520   0.623
  389SOL    MW4 1588   2.938   0.484   0.700
  390SOL     OW 1589   2.857   0.725   0.892
  390SOL    HW2 1590   2.866   0.732   0.987
  390SOL    HW3 1591   2.906   0.646   0.869
  390SOL    MW4 1592   2.865   0.716   0.902
  391SOL     OW 1593   2.603   0.869   0.853
  391SOL    HW2 1594   2.683   0.817   0.855
  391SOL    HW3 1595   2.550   0.831   0.783
  391SOL    MW4 1596   2.606   0.857   0.844
  392SOL     OW 1597   2.667   1.143   0.890
  392SOL    HW2 1598   2.650   1.056   0.853
  392SOL    HW3 1599   2.593   1.196   0.860
  392SOL    MW4 1600   2.655   1.138   0.881
  393SOL     OW 1601   2.896   1.249   0.807
  393SOL    HW2 1602   2.962   1.181   0.820
  393SOL    HW3 1603   2.814   1.209   0.836
  393SOL    MW4 1604   2.894   1.235   0.812
  394SOL     OW 1605   2.904   1.506   0.903
  394SOL    HW2 1606   2.984   1.549   0.872
  394SOL    HW3 1607   2.906   1.419   0.863
  394SOL    MW4 1608   2.915   1.500   0.894
  395SOL     OW 1609   2.715   1.655   0.762
  395SOL    HW2 1610   2.732   1.745   0.789
  395SOL    HW3 1611   2.765   1.601   0.822
  395SOL    MW4 1612   2.724   1.660   0.773
  396SOL     OW 1613   2.684   1.952   0.928
  396SOL    HW2 1614   2.694   1.933   1.022
  396SOL    HW3 1615   2.594   1.986   0.921
  396SOL    MW4 1616   2.673   1.954   0.940
  397SOL     OW 1617   2.843   2.123   0.727
  397SOL    HW2 1618   2.884   2.199   0.768
  397SOL    HW3 1619   2.801   2.076   0.799
  397SOL    MW4 1620   2.843   2.127   0.742
  398SOL     OW 1621   2.941   2.360   0.825
  398SOL    HW2 1622   2.933   2.344   0.919
  398SOL    HW3 1623   2.854   2.389   0.798
  398SOL    MW4 1624   2.929   2.362   0.834
  399SOL     OW 1625   2.665   2.417   0.721
  399SOL    HW2 1626   2.641   2.437   0.630
  399SOL    HW3 1627   2.665   2.503   0.765
  399SOL    MW4 1628   2.662   2.431   0.715
  400SOL     OW 1629   2.669   2.665   0.836
  400SOL    HW2 1630   2.667   2.650   0.931
  400SOL    HW3 1631   2.751   2.712   0.822
  400SOL    MW4 1632   2.680   2.669   0.847
  401SOL     OW 1633   2.846   2.748   0.514
  401SOL    HW2 1634   2.840   2.660   0.478
  401SOL    HW3 1635   2.759   2.786   0.500
  401SOL    MW4 1636   2.833   2.742   0.508
  402SOL     OW 1637   2.898   3.075   0.850
  402SOL    HW2 1638   2.823   3.121   0.812
  402SOL    HW3 1639   2.891   2.985   0.817
  402SOL    MW4 1640   2.887   3.069   0.840
  403SOL     OW 1641   2.701   3.215   0.738
  403SOL    HW2 1642   2.710   3.302   0.777
  403SOL    HW3 1643   2.610   3.191   0.754
  403SOL    MW4 1644   2.690   3.223   0.745
  404SOL     OW 1645   2.721   3.478   0.826
  404SOL    HW2 1646   2.721   3.503   0.918
  404SOL    HW3 1647   2.801   3.518   0.791
  404SOL    MW4 1648   2.732   3.487   0.833
  405SOL     OW 1649   2.951   3.575   0.722
  405SOL    HW2 1650   2.945   3.654   0.775
  405SOL    HW3 1651   2.960   3.606   0.632
  405SOL    MW4 1652   2.951   3.589   0.717
  406SOL     OW 1653   2.938   3.829   0.856
  406SOL    HW2 1654   2.933   3.834   0.951
  406SOL    HW3 1655   2.856   3.869   0.825
  406SOL    MW4 1656   2.926   3.835   0.865
  407SOL     OW 1657   2.726   3.984   0.714
  407SOL    HW2 1658   2.643   3.965   0.756
  407SOL    HW3 1659   2.730   3.923   0.640
  407SOL    MW4 1660   2.716   3.973   0.709
  408SOL     OW 1661   2.811   4.368   0.858
  408SOL    HW2 1662   2.763   4.359   0.940
  408SOL    HW3 1663   2.902   4.349   0.880
  408SOL    MW4 1664   2.817   4.364   0.871
  409SOL     OW 1665   3.024   4.387   0.451
  409SOL    HW2 1666   3.106   4.422   0.485
  409SOL    HW3 1667   2.997   4.321   0.515
  409SOL    MW4 1668   3.031   4.383   0.464
  410SOL     OW 1669   3.433   0.038   0.814
  410SOL    HW2 1670   3.439   0.012   0.906
  410SOL    HW3 1671   3.339   0.049   0.799
  410SOL    MW4 1672   3.421   0.036   0.824
  411SOL     OW 1673   3.153   0.066   0.751
  411SOL    HW2 1674   3.133   0.157   0.773
  411SOL    HW3 1675   3.078   0.017   0.783
  411SOL    MW4 1676   3.141   0.072   0.758
  412SOL     OW 1677   3.116   0.326   0.813
  412SOL    HW2 1678   3.143   0.344   0.903
  412SOL    HW3 1679   3.180   0.371   0.758
  412SOL    MW4 1680   3.128   0.334   0.817
  413SOL     OW 1681   3.341   0.441   0.689
  413SOL    HW2 1682   3.417   0.410   0.738
  413SOL    HW3 1683   3.352   0.404   0.602
  413SOL    MW4 1684   3.353   0.432   0.684
  414SOL     OW 1685   3.307   0.681   0.846
  414SOL    HW2 1686   3.223   0.706   0.806
  414SOL    HW3 1687   3.322   0.592   0.813
  414SOL    MW4 1688   3.298   0.672   0.836
  415SOL     OW 1689   3.070   0.820   0.732
  415SOL    HW2 1690   3.107   0.901   0.769
  415SOL    HW3 1691   2.977   0.824   0.755
  415SOL    MW4 1692   3.062   0.831   0.740
  416SOL     OW 1693   3.096   1.087   0.847
  416SOL    HW2 1694   3.087   1.101   0.941
  416SOL    HW3 1695   3.185   1.116   0.826
  416SOL    MW4 1696   3.107   1.093   0.856
  417SOL     OW 1697   3.362   1.170   0.798
  417SOL    HW2 1698   3.443   1.120   0.810
  417SOL    HW3 1699   3.387   1.261   0.813
  417SOL    MW4 1700   3.376   1.176   0.801
  418SOL     OW 1701   3.371   1.452   0.835
  418SOL    HW2 1702   3.391   1.468   0.928
  418SOL    HW3 1703   3.450   1.477   0.789
  418SOL    MW4 1704   3.384   1.458   0.841
  419SOL     OW 1705   3.129   1.614   0.790
  419SOL    HW2 1706   3.203   1.554   0.801
  419SOL    HW3 1707   3.122   1.626   0.695
  419SOL    MW4 1708   3.138   1.608   0.778
  420SOL     OW 1709   3.197   1.882   0.903
  420SOL    HW2 1710   3.168   1.891   0.994
  420SOL    HW3 1711   3.189   1.788   0.884
  420SOL    MW4 1712   3.192   1.871   0.913
  421SOL     OW 1713   3.474   1.985   0.905
  421SOL    HW2 1714   3.469   2.078   0.885
  421SOL    HW3 1715   3.385   1.952   0.896
  421SOL    MW4 1716   3.462   1.993   0.901
  422SOL     OW 1717   3.457   2.262   0.859
  422SOL    HW2 1718   3.421   2.284   0.945
  422SOL    HW3 1719   3.530   2.323   0.848
  422SOL    MW4 1720   3.462   2.273   0.869
  423SOL     OW 1721   3.092   2.497   0.646
  423SOL    HW2 1722   3.170   2.446   0.626
  423SOL    HW3 1723   3.045   2.444   0.711
  423SOL    MW4 1724   3.096   2.483   0.652
  424SOL     OW 1725   3.195   2.685   0.839
  424SOL    HW2 1726   3.179   2.601   0.795
  424SOL    HW3 1727   3.232   2.741   0.772
  424SOL    MW4 1728   3.197   2.681   0.825
  425SOL     OW 1729   3.311   2.866   0.667
  425SOL    HW2 1730   3.249   2.864   0.594
  425SOL    HW3 1731   3.388   2.820   0.635
  425SOL    MW4 1732   3.313   2.860   0.653
  426SOL     OW 1733   3.373   3.109   0.817
  426SOL    HW2 1734   3.356   3.101   0.911
  426SOL    HW3 1735   3.381   3.019   0.786
  426SOL    MW4 1736   3.372   3.096   0.825
  427SOL     OW 1737   3.110   3.162   0.689
  427SOL    HW2 1738   3.184   3.142   0.746
  427SOL    HW3 1739   3.037   3.112   0.727
  427SOL    MW4 1740   3.110   3.153   0.702
  428SOL     OW 1741   3.158   3.426   0.828
  428SOL    HW2 1742   3.125   3.340   0.800
  428SOL    HW3 1743   3.096   3.489   0.792
  428SOL    MW4 1744   3.146   3.423   0.820
  429SOL     OW 1745   3.291   4.411   0.534
  429SOL    HW2 1746   3.319   4.324   0.504
  429SOL    HW3 1747   3.357   4.471   0.500
  429SOL    MW4 1748   3.303   4.407   0.525
  430SOL     OW 1749   3.449   3.924   0.847
  430SOL    HW2 1750   3.458   4.019   0.854
  430SOL    HW3 1751   3.412   3.898   0.931
  430SOL    MW4 1752   3.446   3.933   0.859
  431SOL     OW 1753   3.107   4.055   0.741
  431SOL    HW2 1754   3.168   4.018   0.677
  431SOL    HW3 1755   3.057   3.979   0.772
  431SOL    MW4 1756   3.109   4.040   0.737
  432SOL     OW 1757   3.099   4.307   0.858
  432SOL    HW2 1758   3.186   4.346   0.859
  432SOL    HW3 1759   3.114   4.216   0.831
  432SOL    MW4 1760   3.112   4.300   0.855
  433SOL     OW 1761   3.341   4.430   0.825
  433SOL    HW2 1762   3.381   4.517   0.819
  433SOL    HW3 1763   3.330   4.402   0.735
  433SOL    MW4 1764   3.345   4.438   0.812
  434SOL     OW 1765   3.841   4.657   0.833
  434SOL    HW2 1766   3.912   4.719   0.816
  434SOL    HW3 1767   3.769   4.687   0.776
  434SOL    MW4 1768   3.841   4.669   0.823
  435SOL     OW 1769   3.649   0.128   0.680
  435SOL    HW2 1770   3.567   0.092   0.712
  435SOL    HW3 1771   3.640   0.131   0.585
  435SOL    MW4 1772   3.637   0.124   0.672
  436SOL     OW 1773   3.558   0.402   0.845
  436SOL    HW2 1774   3.574   0.398   0.939
  436SOL    HW3 1775   3.579   0.313   0.814
  436SOL    MW4 1776   3.563   0.390   0.853
  437SOL     OW 1777   3.793   0.535   0.800
  437SOL    HW2 1778   3.782   0.624   0.833
  437SOL    HW3 1779   3.708   0.494   0.814
  437SOL    MW4 1780   3.780   0.542   0.806
  438SOL     OW 1781   3.737   0.814   0.855
  438SOL    HW2 1782   3.770   0.795   0.943
  438SOL    HW3 1783   3.816   0.836   0.804
  438SOL    MW4 1784   3.752   0.815   0.860
  439SOL     OW 1785   3.480   0.793   0.666
  439SOL    HW2 1786   3.566   0.819   0.699
  439SOL    HW3 1787   3.437   0.751   0.740
  439SOL    MW4 1788   3.485   0.791   0.680
  440SOL     OW 1789   3.624   1.066   0.862
  440SOL    HW2 1790   3.619   1.105   0.949
  440SOL    HW3 1791   3.652   0.976   0.878
  440SOL    MW4 1792   3.627   1.059   0.876
  441SOL     OW 1793   3.830   1.236   0.755
  441SOL    HW2 1794   3.757   1.188   0.794
  441SOL    HW3 1795   3.811   1.237   0.661
  441SOL    MW4 1796   3.818   1.230   0.748
  442SOL     OW 1797   3.820   1.488   0.863
  442SOL    HW2 1798   3.899   1.535   0.837
  442SOL    HW3 1799   3.830   1.401   0.825
  442SOL    MW4 1800   3.831   1.483   0.854
  443SOL     OW 1801   3.591   1.531   0.693
  443SOL    HW2 1802   3.578   1.626   0.690
  443SOL    HW3 1803   3.681   1.520   0.723
  443SOL    MW4 1804   3.601   1.542   0.697
  444SOL     OW 1805   3.843   1.973   0.628
  444SOL    HW2 1806   3.900   1.957   0.703
  444SOL    HW3 1807   3.760   1.932   0.652
  444SOL    MW4 1808   3.840   1.965   0.641
  445SOL     OW 1809   3.820   2.263   0.645
  445SOL    HW2 1810   3.780   2.303   0.722
  445SOL    HW3 1811   3.824   2.170   0.666
  445SOL    MW4 1812   3.815   2.256   0.658
  446SOL     OW 1813   4.119   1.679   0.544
  446SOL    HW2 1814   4.050   1.678   0.478
  446SOL    HW3 1815   4.165   1.762   0.529
  446SOL    MW4 1816   4.116   1.690   0.533
  447SOL     OW 1817   3.700   2.413   0.837
  447SOL    HW2 1818   3.654   2.496   0.851
  447SOL    HW3 1819   3.747   2.398   0.919
  447SOL    MW4 1820   3.700   2.422   0.850
  448SOL     OW 1821   3.601   2.719   0.856
  448SOL    HW2 1822   3.590   2.723   0.951
  448SOL    HW3 1823   3.682   2.767   0.840
  448SOL    MW4 1824   3.610   2.726   0.867
  449SOL     OW 1825   3.829   2.874   0.760
  449SOL    HW2 1826   3.752   2.925   0.783
  449SOL    HW3 1827   3.864   2.916   0.681
  449SOL    MW4 1828   3.824   2.886   0.752
  450SOL     OW 1829   3.648   3.069   0.885
  450SOL    HW2 1830   3.696   3.129   0.828
  450SOL    HW3 1831   3.556   3.084   0.863
  450SOL    MW4 1832   3.642   3.079   0.874
  451SOL     OW 1833   3.386   3.481   0.682
  451SOL    HW2 1834   3.384   3.401   0.629
  451SOL    HW3 1835   3.308   3.475   0.737
  451SOL    MW4 1836   3.375   3.469   0.682
  452SOL     OW 1837   3.639   3.514   0.792
  452SOL    HW2 1838   3.675   3.428   0.770
  452SOL    HW3 1839   3.547   3.508   0.766
  452SOL    MW4 1840   3.632   3.502   0.786
  453SOL     OW 1841   3.822   3.636   0.635
  453SOL    HW2 1842   3.749   3.594   0.680
  453SOL    HW3 1843   3.900   3.605   0.681
  453SOL    MW4 1844   3.822   3.626   0.647
  454SOL     OW 1845   3.704   3.796   0.878
  454SOL    HW2 1846   3.622   3.837   0.853
  454SOL    HW3 1847   3.689   3.702   0.866
  454SOL    MW4 1848   3.692   3.789   0.873
  455SOL     OW 1849   2.570   4.081   0.232
  455SOL    HW2 1850   2.580   4.076   0.137
  455SOL    HW3 1851   2.551   4.173   0.250
  455SOL    MW4 1852   2.569   4.092   0.222
  456SOL     OW 1853   3.519   4.187   0.867
  456SOL    HW2 1854   3.589   4.209   0.806
  456SOL    HW3 1855   3.452   4.253   0.852
  456SOL    MW4 1856   3.519   4.198   0.857
  457SOL     OW 1857   3.891   4.458   0.623
  457SOL    HW2 1858   3.843   4.376   0.636
  457SOL    HW3 1859   3.866   4.513   0.697
  457SOL    MW4 1860   3.882   4.455   0.634
  458SOL     OW 1861   4.241   4.582   0.807
  458SOL    HW2 1862   4.238   4.576   0.903
  458SOL    HW3 1863   4.178   4.651   0.785
  458SOL    MW4 1864   4.232   4.590   0.817
  459SOL     OW 1865   4.086   0.148   0.734
  459SOL    HW2 1866   4.067   0.235   0.769
  459SOL    HW3 1867   4.113   0.163   0.644
  459SOL    MW4 1868   4.087   0.162   0.727
  460SOL     OW 1869   4.005   0.383   0.862
  460SOL    HW2 1870   4.074   0.430   0.815
  460SOL    HW3 1871   3.924   0.428   0.837
  460SOL    MW4 1872   4.003   0.395   0.852
  461SOL     OW 1873   4.215   0.466   0.699
  461SOL    HW2 1874   4.299   0.426   0.721
  461SOL    HW3 1875   4.210   0.459   0.603
  461SOL    MW4 1876   4.225   0.460   0.689
  462SOL     OW 1877   4.214   0.728   0.808
  462SOL    HW2 1878   4.139   0.775   0.771
  462SOL    HW3 1879   4.211   0.642   0.766
  462SOL    MW4 1880   4.203   0.723   0.797
  463SOL     OW 1881   3.976   0.863   0.717
  463SOL    HW2 1882   4.007   0.949   0.747
  463SOL    HW3 1883   4.028   0.845   0.639
  463SOL    MW4 1884   3.987   0.872   0.710
  464SOL     OW 1885   4.075   1.086   0.860
  464SOL    HW2 1886   4.050   1.069   0.951
  464SOL    HW3 1887   4.010   1.149   0.829
  464SOL    MW4 1888   4.063   1.092   0.868
  465SOL     OW 1889   4.297   1.261   0.784
  465SOL    HW2 1890   4.232   1.208   0.830
  465SOL    HW3 1891   4.378   1.210   0.789
  465SOL    MW4 1892   4.299   1.247   0.791
  466SOL     OW 1893   4.285   1.521   0.891
  466SOL    HW2 1894   4.316   1.525   0.982
  466SOL    HW3 1895   4.293   1.429   0.867
  466SOL    MW4 1896   4.290   1.509   0.900
  467SOL     OW 1897   4.041   1.624   0.791
  467SOL    HW2 1898   4.116   1.595   0.843
  467SOL    HW3 1899   4.076   1.633   0.702
  467SOL    MW4 1900   4.056   1.622   0.786
  468SOL     OW 1901   4.029   1.905   0.836
  468SOL    HW2 1902   4.033   1.810   0.826
  468SOL    HW3 1903   4.118   1.935   0.818
  468SOL    MW4 1904   4.041   1.897   0.833
  469SOL     OW 1905   4.276   1.995   0.763
  469SOL    HW2 1906   4.367   1.985   0.789
  469SOL    HW3 1907   4.277   1.983   0.668
  469SOL    MW4 1908   4.288   1.992   0.754
  470SOL     OW 1909   4.250   2.272   0.832
  470SOL    HW2 1910   4.176   2.303   0.779
  470SOL    HW3 1911   4.257   2.178   0.811
  470SOL    MW4 1912   4.241   2.263   0.822
  471SOL     OW 1913   4.023   2.617   0.593
  471SOL    HW2 1914   4.014   2.634   0.687
  471SOL    HW3 1915   3.935   2.632   0.558
  471SOL    MW4 1916   4.010   2.621   0.601
  472SOL     OW 1917   4.025   2.716   0.867
  472SOL    HW2 1918   4.109   2.754   0.843
  472SOL    HW3 1919   3.960   2.781   0.838
  472SOL    MW4 1920   4.027   2.730   0.860
  473SOL     OW 1921   4.255   2.821   0.751
  473SOL    HW2 1922   4.341   2.789   0.776
  473SOL    HW3 1923   4.247   2.799   0.658
  473SOL    MW4 1924   4.265   2.814   0.742
  474SOL     OW 1925   4.206   3.089   0.798
  474SOL    HW2 1926   4.220   2.995   0.782
  474SOL    HW3 1927   4.291   3.129   0.778
  474SOL    MW4 1928   4.219   3.082   0.793
  475SOL     OW 1929   4.030   3.258   0.672
  475SOL    HW2 1930   4.037   3.340   0.722
  475SOL    HW3 1931   4.087   3.197   0.718
  475SOL    MW4 1932   4.038   3.261   0.685
  476SOL     OW 1933   4.019   3.516   0.803
  476SOL    HW2 1934   4.014   3.509   0.898
  476SOL    HW3 1935   4.103   3.560   0.787
  476SOL    MW4 1936   4.030   3.521   0.814
  477SOL     OW 1937   4.251   3.637   0.742
  477SOL    HW2 1938   4.224   3.728   0.754
  477SOL    HW3 1939   4.269   3.630   0.648
  477SOL    MW4 1940   4.250   3.648   0.731
  478SOL     OW 1941   4.216   3.901   0.844
  478SOL    HW2 1942   4.234   3.868   0.932
  478SOL    HW3 1943   4.177   3.988   0.859
  478SOL    MW4 1944   4.213   3.908   0.858
  479SOL     OW 1945   3.860   4.003   0.747
  479SOL    HW2 1946   3.808   3.945   0.804
  479SOL    HW3 1947   3.886   3.947   0.674
  479SOL    MW4 1948   3.857   3.988   0.745
  480SOL     OW 1949   4.073   4.130   0.893
  480SOL    HW2 1950   4.084   4.208   0.839
  480SOL    HW3 1951   3.997   4.085   0.855
  480SOL    MW4 1952   4.064   4.135   0.881
  481SOL     OW 1953   4.317   4.297   0.546
  481SOL    HW2 1954   4.235   4.306   0.594
  481SOL    HW3 1955   4.385   4.312   0.611
  481SOL    MW4 1956   4.315   4.300   0.561
  482SOL     OW 1957   0.212   4.662   1.103
  482SOL    HW2 1958   0.296   4.686   1.142
  482SOL    HW3 1959   0.228   4.659   1.009
  482SOL    MW4 1960   0.225   4.665   1.096
  483SOL     OW 1961   4.437   0.111   1.172
  483SOL    HW2 1962   4.365   0.053   1.144
  483SOL    HW3 1963   4.516   0.068   1.139
  483SOL    MW4 1964   4.438   0.097   1.164
  484SOL     OW 1965   4.478   0.358   1.063
  484SOL    HW2 1966   4.416   0.412   1.112
  484SOL    HW3 1967   4.464   0.270   1.096
  484SOL    MW4 1968   4.468   0.354   1.074
  485SOL     OW 1969   0.186   0.511   1.205
  485SOL    HW2 1970   0.190   0.598   1.166
  485SOL    HW3 1971   0.123   0.463   1.151
  485SOL    MW4 1972   0.178   0.516   1.193
  486SOL     OW 1973   0.206   0.770   1.103
  486SOL    HW2 1974   0.282   0.821   1.134
  486SOL    HW3 1975   0.131   0.812   1.145
  486SOL    MW4 1976   0.206   0.783   1.113
  487SOL     OW 1977   4.489   0.882   1.222
  487SOL    HW2 1978   4.467   0.912   1.310
  487SOL    HW3 1979   4.407   0.847   1.188
  487SOL    MW4 1980   4.475   0.882   1.229
  488SOL     OW 1981   0.055   1.146   1.126
  488SOL    HW2 1982  -0.016   1.200   1.159
  488SOL    HW3 1983   0.039   1.059   1.165
  488SOL    MW4 1984   0.044   1.142   1.136
  489SOL     OW 1985   0.241   1.313   1.234
  489SOL    HW2 1986   0.334   1.297   1.215
  489SOL    HW3 1987   0.194   1.245   1.187
  489SOL    MW4 1988   0.247   1.302   1.226
  490SOL     OW 1989   0.226   1.569   1.101
  490SOL    HW2 1990   0.229   1.482   1.142
  490SOL    HW3 1991   0.232   1.552   1.007
  490SOL    MW4 1992   0.227   1.555   1.094
  491SOL     OW 1993   0.027   1.660   1.267
  491SOL    HW2 1994  -0.006   1.744   1.236
  491SOL    HW3 1995   0.091   1.633   1.202
  491SOL    MW4 1996   0.031   1.668   1.255
  492SOL     OW 1997   0.003   1.900   1.118
  492SOL    HW2 1998  -0.078   1.948   1.138
  492SOL    HW3 1999   0.017   1.915   1.024
  492SOL    MW4 2000  -0.006   1.908   1.108
  493SOL     OW 2001   0.209   2.066   1.187
  493SOL    HW2 2002   0.197   2.154   1.150
  493SOL    HW3 2003   0.131   2.018   1.159
  493SOL    MW4 2004   0.197   2.071   1.178
  494SOL     OW 2005   0.206   2.343   1.087
  494SOL    HW2 2006   0.294   2.377   1.107
  494SOL    HW3 2007   0.147   2.398   1.138
  494SOL    MW4 2008   0.210   2.355   1.097
  495SOL     OW 2009   4.473   2.478   1.201
  495SOL    HW2 2010   4.471   2.474   1.297
  495SOL    HW3 2011   4.411   2.412   1.173
  495SOL    MW4 2012   4.465   2.469   1.210
  496SOL     OW 2013   0.004   2.727   1.067
  496SOL    HW2 2014  -0.068   2.781   1.101
  496SOL    HW3 2015  -0.011   2.641   1.105
  496SOL    MW4 2016  -0.008   2.723   1.076
  497SOL     OW 2017   0.231   2.807   1.201
  497SOL    HW2 2018   0.239   2.792   1.295
  497SOL    HW3 2019   0.146   2.770   1.177
  497SOL    MW4 2020   0.221   2.800   1.210
  498SOL     OW 2021   0.235   3.067   1.079
  498SOL    HW2 2022   0.306   3.106   1.130
  498SOL    HW3 2023   0.234   2.975   1.106
  498SOL    MW4 2024   0.244   3.060   1.090
  499SOL     OW 2025   0.007   3.194   1.188
  499SOL    HW2 2026  -0.072   3.156   1.148
  499SOL    HW3 2027   0.080   3.146   1.150
  499SOL    MW4 2028   0.006   3.183   1.178
  500SOL     OW 2029   4.479   3.468   1.115
  500SOL    HW2 2030   4.483   3.380   1.153
  500SOL    HW3 2031   4.481   3.454   1.021
  500SOL    MW4 2032   4.480   3.455   1.108
  501SOL     OW 2033   0.225   3.617   1.180
  501SOL    HW2 2034   0.254   3.612   1.271
  501SOL    HW3 2035   0.149   3.559   1.175
  501SOL    MW4 2036   0.218   3.609   1.191
  502SOL     OW 2037   0.211   3.895   1.148
  502SOL    HW2 2038   0.131   3.925   1.190
  502SOL    HW3 2039   0.215   3.801   1.166
  502SOL    MW4 2040   0.201   3.887   1.156
  503SOL     OW 2041   4.463   3.982   1.242
  503SOL    HW2 2042   4.420   4.000   1.326
  503SOL    HW3 2043   4.401   3.928   1.194
  503SOL    MW4 2044   4.450   3.977   1.247
  504SOL     OW 2045   0.039   4.220   1.111
  504SOL    HW2 2046   0.110   4.267   1.155
  504SOL    HW3 2047   0.033   4.137   1.158
  504SOL    MW4 2048   0.048   4.215   1.123
  505SOL     OW 2049   0.219   4.403   1.222
  505SOL    HW2 2050   0.216   4.422   1.316
  505SOL    HW3 2051   0.217   4.488   1.179
  505SOL    MW4 2052   0.218   4.417   1.229
  506SOL     OW 2053   0.686   0.008   1.086
  506SOL    HW2 2054   0.761   0.053   1.126
  506SOL    HW3 2055   0.687  -0.080   1.125
  506SOL    MW4 2056   0.696   0.002   1.097
  507SOL     OW 2057   0.453   0.123   1.197
  507SOL    HW2 2058   0.451   0.215   1.171
  507SOL    HW3 2059   0.532   0.088   1.155
  507SOL    MW4 2060   0.463   0.131   1.188
  508SOL     OW 2061   0.437   0.411   1.124
  508SOL    HW2 2062   0.359   0.443   1.169
  508SOL    HW3 2063   0.403   0.373   1.042
  508SOL    MW4 2064   0.422   0.410   1.119
  509SOL     OW 2065   0.678   0.553   1.207
  509SOL    HW2 2066   0.670   0.645   1.182
  509SOL    HW3 2067   0.597   0.513   1.178
  509SOL    MW4 2068   0.667   0.560   1.200
  510SOL     OW 2069   0.651   0.799   1.107
  510SOL    HW2 2070   0.573   0.833   1.151
  510SOL    HW3 2071   0.631   0.804   1.014
  510SOL    MW4 2072   0.638   0.804   1.101
  511SOL     OW 2073   0.418   0.914   1.223
  511SOL    HW2 2074   0.435   0.915   1.317
  511SOL    HW3 2075   0.428   1.006   1.196
  511SOL    MW4 2076   0.422   0.926   1.232
  512SOL     OW 2077   0.482   1.196   1.146
  512SOL    HW2 2078   0.564   1.232   1.178
  512SOL    HW3 2079   0.492   1.195   1.051
  512SOL    MW4 2080   0.494   1.201   1.138
  513SOL     OW 2081   0.705   1.342   1.209
  513SOL    HW2 2082   0.767   1.289   1.159
  513SOL    HW3 2083   0.699   1.424   1.160
  513SOL    MW4 2084   0.712   1.346   1.196
  514SOL     OW 2085   0.665   1.585   1.070
  514SOL    HW2 2086   0.750   1.625   1.090
  514SOL    HW3 2087   0.603   1.631   1.127
  514SOL    MW4 2088   0.668   1.596   1.080
  515SOL     OW 2089   0.438   1.722   1.207
  515SOL    HW2 2090   0.442   1.703   1.301
  515SOL    HW3 2091   0.356   1.683   1.178
  515SOL    MW4 2092   0.428   1.715   1.216
  516SOL     OW 2093   0.464   1.957   1.067
  516SOL    HW2 2094   0.460   1.869   1.105
  516SOL    HW3 2095   0.381   1.998   1.091
  516SOL    MW4 2096   0.453   1.950   1.075
  517SOL     OW 2097   0.682   2.064   1.230
  517SOL    HW2 2098   0.678   2.058   1.325
  517SOL    HW3 2099   0.599   2.026   1.200
  517SOL    MW4 2100   0.670   2.058   1.239
  518SOL     OW 2101   0.709   2.308   1.089
  518SOL    HW2 2102   0.628   2.355   1.110
  518SOL    HW3 2103   0.699   2.223   1.133
  518SOL    MW4 2104   0.697   2.303   1.098
  519SOL     OW 2105   0.461   2.449   1.169
  519SOL    HW2 2106   0.463   2.468   1.263
  519SOL    HW3 2107   0.451   2.534   1.127
  519SOL    MW4 2108   0.460   2.463   1.176
  520SOL     OW 2109   0.461   2.711   1.065
  520SOL    HW2 2110   0.395   2.762   1.112
  520SOL    HW3 2111   0.421   2.693   0.980
  520SOL    MW4 2112   0.447   2.715   1.060
  521SOL     OW 2113   0.687   2.804   1.229
  521SOL    HW2 2114   0.675   2.898   1.211
  521SOL    HW3 2115   0.623   2.761   1.173
  521SOL    MW4 2116   0.677   2.811   1.219
  522SOL     OW 2117   0.670   3.063   1.149
  522SOL    HW2 2118   0.736   3.123   1.183
  522SOL    HW3 2119   0.685   3.062   1.055
  522SOL    MW4 2120   0.680   3.071   1.141
  523SOL     OW 2121   0.440   3.199   1.216
  523SOL    HW2 2122   0.450   3.286   1.177
  523SOL    HW3 2123   0.523   3.155   1.195
  523SOL    MW4 2124   0.452   3.205   1.208
  524SOL     OW 2125   0.449   3.455   1.096
  524SOL    HW2 2126   0.523   3.504   1.133
  524SOL    HW3 2127   0.374   3.513   1.107
  524SOL    MW4 2128   0.449   3.469   1.102
  525SOL     OW 2129   0.647   3.593   1.233
  525SOL    HW2 2130   0.663   3.597   1.327
  525SOL    HW3 2131   0.648   3.684   1.204
  525SOL    MW4 2132   0.649   3.606   1.242
  526SOL     OW 2133   0.653   3.849   1.119
  526SOL    HW2 2134   0.585   3.915   1.132
  526SOL    HW3 2135   0.654   3.834   1.025
  526SOL    MW4 2136   0.644   3.855   1.108
  527SOL     OW 2137   0.455   4.012   1.215
  527SOL    HW2 2138   0.470   4.100   1.183
  527SOL    HW3 2139   0.369   3.988   1.179
  527SOL    MW4 2140   0.445   4.020   1.206
  528SOL     OW 2141   0.469   4.291   1.144
  528SOL    HW2 2142   0.547   4.345   1.159
  528SOL    HW3 2143   0.396   4.347   1.170
  528SOL    MW4 2144   0.470   4.305   1.149
  529SOL     OW 2145   0.702   4.436   1.230
  529SOL    HW2 2146   0.689   4.416   1.323
  529SOL    HW3 2147   0.792   4.409   1.211
  529SOL    MW4 2148   0.712   4.430   1.240
  530SOL     OW 2149   1.104   4.661   1.164
  530SOL    HW2 2150   1.116   4.567   1.182
  530SOL    HW3 2151   1.117   4.669   1.070
  530SOL    MW4 2152   1.107   4.649   1.154
  531SOL     OW 2153   0.877   0.144   1.238
  531SOL    HW2 2154   0.864   0.106   1.325
  531SOL    HW3 2155   0.956   0.100   1.204
  531SOL    MW4 2156   0.886   0.133   1.245
  532SOL     OW 2157   0.904   0.390   1.132
  532SOL    HW2 2158   0.888   0.303   1.170
  532SOL    HW3 2159   0.824   0.439   1.147
  532SOL    MW4 2160   0.892   0.385   1.139
  533SOL     OW 2161   1.101   0.538   1.277
  533SOL    HW2 2162   1.095   0.527   1.371
  533SOL    HW3 2163   1.042   0.472   1.240
  533SOL    MW4 2164   1.093   0.528   1.284
  534SOL     OW 2165   1.067   0.742   1.089
  534SOL    HW2 2166   1.013   0.799   1.142
  534SOL    HW3 2167   1.077   0.662   1.140
  534SOL    MW4 2168   1.061   0.739   1.102
  535SOL     OW 2169   0.884   0.917   1.230
  535SOL    HW2 2170   0.869   1.002   1.188
  535SOL    HW3 2171   0.808   0.864   1.205
  535SOL    MW4 2172   0.872   0.921   1.221
  536SOL     OW 2173   0.869   1.173   1.103
  536SOL    HW2 2174   0.954   1.195   1.142
  536SOL    HW3 2175   0.886   1.167   1.009
  536SOL    MW4 2176   0.882   1.175   1.096
  537SOL     OW 2177   1.134   1.266   1.183
  537SOL    HW2 2178   1.125   1.279   1.278
  537SOL    HW3 2179   1.212   1.211   1.173
  537SOL    MW4 2180   1.143   1.261   1.194
  538SOL     OW 2181   1.143   1.525   1.099
  538SOL    HW2 2182   1.132   1.434   1.125
  538SOL    HW3 2183   1.160   1.521   1.005
  538SOL    MW4 2184   1.143   1.512   1.090
  539SOL     OW 2185   0.915   1.665   1.154
  539SOL    HW2 2186   0.932   1.755   1.128
  539SOL    HW3 2187   0.993   1.617   1.126
  539SOL    MW4 2188   0.928   1.670   1.147
  540SOL     OW 2189   0.922   1.944   1.085
  540SOL    HW2 2190   0.985   1.996   1.134
  540SOL    HW3 2191   0.836   1.976   1.114
  540SOL    MW4 2192   0.919   1.955   1.095
  541SOL     OW 2193   1.145   2.063   1.195
  541SOL    HW2 2194   1.139   2.064   1.290
  541SOL    HW3 2195   1.161   2.154   1.170
  541SOL    MW4 2196   1.146   2.075   1.204
  542SOL     OW 2197   1.165   2.348   1.144
  542SOL    HW2 2198   1.224   2.421   1.159
  542SOL    HW3 2199   1.095   2.359   1.208
  542SOL    MW4 2200   1.163   2.359   1.154
  543SOL     OW 2201   0.906   2.446   1.217
  543SOL    HW2 2202   0.894   2.441   1.312
  543SOL    HW3 2203   0.833   2.396   1.181
  543SOL    MW4 2204   0.895   2.439   1.225
  544SOL     OW 2205   0.931   2.701   1.107
  544SOL    HW2 2206   0.920   2.609   1.131
  544SOL    HW3 2207   0.853   2.745   1.141
  544SOL    MW4 2208   0.919   2.695   1.115
  545SOL     OW 2209   1.165   2.820   1.201
  545SOL    HW2 2210   1.157   2.820   1.296
  545SOL    HW3 2211   1.082   2.785   1.170
  545SOL    MW4 2212   1.153   2.815   1.209
  546SOL     OW 2213   1.112   3.070   1.087
  546SOL    HW2 2214   1.144   2.986   1.120
  546SOL    HW3 2215   1.121   3.064   0.992
  546SOL    MW4 2216   1.117   3.058   1.079
  547SOL     OW 2217   0.898   3.184   1.248
  547SOL    HW2 2218   0.912   3.268   1.204
  547SOL    HW3 2219   0.966   3.126   1.213
  547SOL    MW4 2220   0.909   3.187   1.238
  548SOL     OW 2221   0.888   3.441   1.133
  548SOL    HW2 2222   0.799   3.471   1.153
  548SOL    HW3 2223   0.890   3.433   1.037
  548SOL    MW4 2224   0.876   3.444   1.123
  549SOL     OW 2225   1.090   3.617   1.217
  549SOL    HW2 2226   1.172   3.573   1.195
  549SOL    HW3 2227   1.022   3.552   1.196
  549SOL    MW4 2228   1.092   3.603   1.212
  550SOL     OW 2229   1.117   3.872   1.136
  550SOL    HW2 2230   1.027   3.902   1.150
  550SOL    HW3 2231   1.117   3.781   1.167
  550SOL    MW4 2232   1.105   3.864   1.142
  551SOL     OW 2233   0.876   3.985   1.207
  551SOL    HW2 2234   0.869   3.962   1.300
  551SOL    HW3 2235   0.809   3.931   1.165
  551SOL    MW4 2236   0.866   3.975   1.213
  552SOL     OW 2237   0.917   4.261   1.155
  552SOL    HW2 2238   0.903   4.171   1.183
  552SOL    HW3 2239   0.920   4.256   1.059
  552SOL    MW4 2240   0.916   4.248   1.146
  553SOL     OW 2241   1.160   4.394   1.240
  553SOL    HW2 2242   1.162   4.404   1.335
  553SOL    HW3 2243   1.073   4.358   1.221
  553SOL    MW4 2244   1.149   4.390   1.250
  554SOL     OW 2245   1.533   0.018   1.171
  554SOL    HW2 2246   1.611   0.062   1.205
  554SOL    HW3 2247   1.547  -0.075   1.193
  554SOL    MW4 2248   1.545   0.011   1.179
  555SOL     OW 2249   1.312   0.163   1.258
  555SOL    HW2 2250   1.398   0.133   1.227
  555SOL    HW3 2251   1.249   0.107   1.214
  555SOL    MW4 2252   1.315   0.152   1.248
  556SOL     OW 2253   1.307   0.412   1.142
  556SOL    HW2 2254   1.321   0.331   1.192
  556SOL    HW3 2255   1.246   0.462   1.196
  556SOL    MW4 2256   1.301   0.408   1.156
  557SOL     OW 2257   1.565   0.522   1.169
  557SOL    HW2 2258   1.545   0.614   1.150
  557SOL    HW3 2259   1.480   0.484   1.192
  557SOL    MW4 2260   1.551   0.529   1.169
  558SOL     OW 2261   1.537   0.790   1.131
  558SOL    HW2 2262   1.615   0.820   1.177
  558SOL    HW3 2263   1.564   0.782   1.039
  558SOL    MW4 2264   1.551   0.793   1.125
  559SOL     OW 2265   1.294   0.870   1.218
  559SOL    HW2 2266   1.371   0.829   1.178
  559SOL    HW3 2267   1.220   0.827   1.176
  559SOL    MW4 2268   1.295   0.859   1.207
  560SOL     OW 2269   1.368   1.133   1.139
  560SOL    HW2 2270   1.351   1.043   1.168
  560SOL    HW3 2271   1.396   1.124   1.048
  560SOL    MW4 2272   1.370   1.120   1.131
  561SOL     OW 2273   1.602   1.286   1.198
  561SOL    HW2 2274   1.670   1.223   1.177
  561SOL    HW3 2275   1.520   1.238   1.188
  561SOL    MW4 2276   1.600   1.271   1.194
  562SOL     OW 2277   1.644   1.516   1.070
  562SOL    HW2 2278   1.693   1.553   1.143
  562SOL    HW3 2279   1.619   1.429   1.100
  562SOL    MW4 2280   1.647   1.509   1.083
  563SOL     OW 2281   1.379   1.661   1.175
  563SOL    HW2 2282   1.453   1.604   1.151
  563SOL    HW3 2283   1.302   1.606   1.164
  563SOL    MW4 2284   1.379   1.646   1.171
  564SOL     OW 2285   1.377   1.931   1.090
  564SOL    HW2 2286   1.374   1.837   1.108
  564SOL    HW3 2287   1.289   1.962   1.114
  564SOL    MW4 2288   1.365   1.923   1.095
  565SOL     OW 2289   1.584   2.072   1.194
  565SOL    HW2 2290   1.587   2.162   1.163
  565SOL    HW3 2291   1.510   2.033   1.148
  565SOL    MW4 2292   1.574   2.079   1.184
  566SOL     OW 2293   1.578   2.355   1.136
  566SOL    HW2 2294   1.500   2.404   1.160
  566SOL    HW3 2295   1.565   2.335   1.043
  566SOL    MW4 2296   1.566   2.359   1.127
  567SOL     OW 2297   1.352   2.520   1.188
  567SOL    HW2 2298   1.344   2.535   1.282
  567SOL    HW3 2299   1.377   2.606   1.153
  567SOL    MW4 2300   1.354   2.534   1.196
  568SOL     OW 2301   1.377   2.764   1.065
  568SOL    HW2 2302   1.438   2.794   1.133
  568SOL    HW3 2303   1.290   2.776   1.105
  568SOL    MW4 2304   1.373   2.770   1.079
  569SOL     OW 2305   1.573   2.840   1.240
  569SOL    HW2 2306   1.657   2.818   1.199
  569SOL    HW3 2307   1.565   2.935   1.228
  569SOL    MW4 2308   1.583   2.850   1.233
  570SOL     OW 2309   1.547   3.113   1.133
  570SOL    HW2 2310   1.626   3.161   1.156
  570SOL    HW3 2311   1.476   3.162   1.175
  570SOL    MW4 2312   1.548   3.125   1.142
  571SOL     OW 2313   1.322   3.240   1.235
  571SOL    HW2 2314   1.330   3.209   1.325
  571SOL    HW3 2315   1.240   3.203   1.203
  571SOL    MW4 2316   1.312   3.231   1.243
  572SOL     OW 2317   1.329   3.493   1.153
  572SOL    HW2 2318   1.314   3.406   1.189
  572SOL    HW3 2319   1.354   3.477   1.062
  572SOL    MW4 2320   1.330   3.479   1.146
  573SOL     OW 2321   1.573   3.620   1.243
  573SOL    HW2 2322   1.567   3.710   1.211
  573SOL    HW3 2323   1.497   3.576   1.205
  573SOL    MW4 2324   1.562   3.626   1.234
  574SOL     OW 2325   1.558   3.876   1.136
  574SOL    HW2 2326   1.474   3.912   1.165
  574SOL    HW3 2327   1.553   3.877   1.041
  574SOL    MW4 2328   1.546   3.881   1.127
  575SOL     OW 2329   1.346   3.985   1.262
  575SOL    HW2 2330   1.356   4.076   1.236
  575SOL    HW3 2331   1.260   3.959   1.229
  575SOL    MW4 2332   1.336   3.993   1.254
  576SOL     OW 2333   1.374   4.240   1.148
  576SOL    HW2 2334   1.290   4.280   1.170
  576SOL    HW3 2335   1.380   4.248   1.053
  576SOL    MW4 2336   1.363   4.246   1.138
  577SOL     OW 2337   1.579   4.414   1.184
  577SOL    HW2 2338   1.582   4.405   1.279
  577SOL    HW3 2339   1.510   4.354   1.155
  577SOL    MW4 2340   1.570   4.405   1.192
  578SOL     OW 2341   2.014   0.036   1.074
  578SOL    HW2 2342   2.008  -0.049   1.117
  578SOL    HW3 2343   2.022   0.016   0.981
  578SOL    MW4 2344   2.015   0.022   1.068
  579SOL     OW 2345   1.791   0.138   1.239
  579SOL    HW2 2346   1.796   0.227   1.204
  579SOL    HW3 2347   1.852   0.088   1.184
  579SOL    MW4 2348   1.800   0.143   1.227
  580SOL     OW 2349   1.798   0.364   1.093
  580SOL    HW2 2350   1.725   0.423   1.113
  580SOL    HW3 2351   1.793   0.351   0.999
  580SOL    MW4 2352   1.788   0.370   1.083
  581SOL     OW 2353   2.012   0.504   1.188
  581SOL    HW2 2354   2.008   0.484   1.281
  581SOL    HW3 2355   1.941   0.453   1.149
  581SOL    MW4 2356   2.002   0.495   1.195
  582SOL     OW 2357   2.001   0.771   1.125
  582SOL    HW2 2358   2.014   0.677   1.142
  582SOL    HW3 2359   2.003   0.779   1.030
  582SOL    MW4 2360   2.003   0.760   1.115
  583SOL     OW 2361   1.780   0.860   1.242
  583SOL    HW2 2362   1.788   0.866   1.338
  583SOL    HW3 2363   1.859   0.815   1.215
  583SOL    MW4 2364   1.791   0.855   1.251
  584SOL     OW 2365   1.807   1.124   1.133
  584SOL    HW2 2366   1.807   1.033   1.163
  584SOL    HW3 2367   1.816   1.119   1.038
  584SOL    MW4 2368   1.808   1.111   1.125
  585SOL     OW 2369   2.023   1.269   1.199
  585SOL    HW2 2370   2.099   1.215   1.177
  585SOL    HW3 2371   1.947   1.220   1.169
  585SOL    MW4 2372   2.023   1.256   1.192
  586SOL     OW 2373   2.026   1.543   1.142
  586SOL    HW2 2374   2.023   1.451   1.169
  586SOL    HW3 2375   2.008   1.541   1.048
  586SOL    MW4 2376   2.024   1.531   1.133
  587SOL     OW 2377   1.796   1.680   1.227
  587SOL    HW2 2378   1.799   1.766   1.186
  587SOL    HW3 2379   1.877   1.637   1.198
  587SOL    MW4 2380   1.807   1.685   1.217
  588SOL     OW 2381   1.824   1.960   1.108
  588SOL    HW2 2382   1.743   1.994   1.147
  588SOL    HW3 2383   1.807   1.960   1.014
  588SOL    MW4 2384   1.811   1.964   1.101
  589SOL     OW 2385   2.034   2.108   1.221
  589SOL    HW2 2386   2.027   2.098   1.316
  589SOL    HW3 2387   1.959   2.061   1.186
  589SOL    MW4 2388   2.023   2.100   1.229
  590SOL     OW 2389   2.002   2.352   1.110
  590SOL    HW2 2390   2.067   2.403   1.159
  590SOL    HW3 2391   2.007   2.264   1.146
  590SOL    MW4 2392   2.011   2.347   1.121
  591SOL     OW 2393   1.801   2.497   1.243
  591SOL    HW2 2394   1.861   2.441   1.195
  591SOL    HW3 2395   1.714   2.470   1.215
  591SOL    MW4 2396   1.797   2.486   1.233
  592SOL     OW 2397   1.810   2.740   1.127
  592SOL    HW2 2398   1.820   2.658   1.176
  592SOL    HW3 2399   1.821   2.715   1.035
  592SOL    MW4 2400   1.812   2.726   1.121
  593SOL     OW 2401   2.052   2.878   1.144
  593SOL    HW2 2402   2.034   2.968   1.116
  593SOL    HW3 2403   1.971   2.830   1.126
  593SOL    MW4 2404   2.039   2.884   1.138
  594SOL     OW 2405   1.990   3.138   1.077
  594SOL    HW2 2406   1.909   3.181   1.103
  594SOL    HW3 2407   2.001   3.160   0.984
  594SOL    MW4 2408   1.981   3.147   1.068
  595SOL     OW 2409   1.778   3.275   1.176
  595SOL    HW2 2410   1.771   3.284   1.271
  595SOL    HW3 2411   1.777   3.365   1.143
  595SOL    MW4 2412   1.777   3.288   1.184
  596SOL     OW 2413   1.794   3.531   1.093
  596SOL    HW2 2414   1.863   3.568   1.148
  596SOL    HW3 2415   1.712   3.561   1.134
  596SOL    MW4 2416   1.792   3.540   1.105
  597SOL     OW 2417   2.026   3.628   1.209
  597SOL    HW2 2418   2.059   3.610   1.297
  597SOL    HW3 2419   2.092   3.590   1.151
  597SOL    MW4 2420   2.039   3.621   1.213
  598SOL     OW 2421   2.037   3.887   1.123
  598SOL    HW2 2422   1.950   3.920   1.148
  598SOL    HW3 2423   2.040   3.798   1.159
  598SOL    MW4 2424   2.026   3.879   1.131
  599SOL     OW 2425   1.797   4.031   1.209
  599SOL    HW2 2426   1.801   4.014   1.303
  599SOL    HW3 2427   1.712   3.996   1.182
  599SOL    MW4 2428   1.786   4.024   1.218
  600SOL     OW 2429   1.814   4.281   1.077
  600SOL    HW2 2430   1.809   4.194   1.118
  600SOL    HW3 2431   1.729   4.320   1.094
  600SOL    MW4 2432   1.802   4.274   1.085
  601SOL     OW 2433   2.026   4.423   1.168
  601SOL    HW2 2434   2.037   4.407   1.262
  601SOL    HW3 2435   1.948   4.373   1.144
  601SOL    MW4 2436   2.017   4.414   1.177
  602SOL     OW 2437   2.439   0.001   1.067
  602SOL    HW2 2438   2.518   0.037   1.107
  602SOL    HW3 2439   2.367   0.047   1.111
  602SOL    MW4 2440   2.440   0.012   1.078
  603SOL     OW 2441   2.217   0.147   1.213
  603SOL    HW2 2442   2.244   0.235   1.186
  603SOL    HW3 2443   2.139   0.130   1.160
  603SOL    MW4 2444   2.210   0.157   1.202
  604SOL     OW 2445   2.262   0.384   1.097
  604SOL    HW2 2446   2.186   0.430   1.132
  604SOL    HW3 2447   2.244   0.376   1.003
  604SOL    MW4 2448   2.250   0.389   1.089
  605SOL     OW 2449   2.504   0.519   1.159
  605SOL    HW2 2450   2.508   0.522   1.255
  605SOL    HW3 2451   2.424   0.470   1.140
  605SOL    MW4 2452   2.494   0.513   1.169
  606SOL     OW 2453   2.455   0.808   1.098
  606SOL    HW2 2454   2.463   0.713   1.106
  606SOL    HW3 2455   2.489   0.828   1.011
  606SOL    MW4 2456   2.461   0.798   1.088
  607SOL     OW 2457   2.237   0.888   1.232
  607SOL    HW2 2458   2.312   0.859   1.180
  607SOL    HW3 2459   2.163   0.838   1.197
  607SOL    MW4 2460   2.237   0.877   1.221
  608SOL     OW 2461   2.251   1.145   1.123
  608SOL    HW2 2462   2.310   1.200   1.175
  608SOL    HW3 2463   2.257   1.059   1.164
  608SOL    MW4 2464   2.260   1.141   1.135
  609SOL     OW 2465   2.484   1.291   1.207
  609SOL    HW2 2466   2.573   1.257   1.196
  609SOL    HW3 2467   2.487   1.380   1.171
  609SOL    MW4 2468   2.496   1.298   1.201
  610SOL     OW 2469   2.466   1.556   1.136
  610SOL    HW2 2470   2.383   1.574   1.179
  610SOL    HW3 2471   2.447   1.565   1.043
  610SOL    MW4 2472   2.453   1.560   1.130
  611SOL     OW 2473   2.237   1.690   1.251
  611SOL    HW2 2474   2.253   1.778   1.218
  611SOL    HW3 2475   2.166   1.656   1.197
  611SOL    MW4 2476   2.230   1.697   1.239
  612SOL     OW 2477   2.246   1.961   1.118
  612SOL    HW2 2478   2.170   1.997   1.163
  612SOL    HW3 2479   2.219   1.951   1.027
  612SOL    MW4 2480   2.233   1.964   1.112
  613SOL     OW 2481   2.470   2.087   1.234
  613SOL    HW2 2482   2.546   2.030   1.223
  613SOL    HW3 2483   2.396   2.034   1.203
  613SOL    MW4 2484   2.470   2.072   1.229
  614SOL     OW 2485   2.446   2.364   1.127
  614SOL    HW2 2486   2.441   2.277   1.168
  614SOL    HW3 2487   2.429   2.347   1.034
  614SOL    MW4 2488   2.443   2.350   1.120
  615SOL     OW 2489   2.220   2.483   1.216
  615SOL    HW2 2490   2.217   2.477   1.311
  615SOL    HW3 2491   2.305   2.446   1.192
  615SOL    MW4 2492   2.231   2.477   1.225
  616SOL     OW 2493   2.277   2.728   1.104
  616SOL    HW2 2494   2.258   2.648   1.154
  616SOL    HW3 2495   2.207   2.788   1.128
  616SOL    MW4 2496   2.266   2.725   1.114
  617SOL     OW 2497   2.480   2.848   1.247
  617SOL    HW2 2498   2.485   2.821   1.339
  617SOL    HW3 2499   2.397   2.811   1.216
  617SOL    MW4 2500   2.470   2.840   1.255
  618SOL     OW 2501   2.491   3.106   1.146
  618SOL    HW2 2502   2.401   3.140   1.149
  618SOL    HW3 2503   2.487   3.023   1.193
  618SOL    MW4 2504   2.478   3.100   1.152
  619SOL     OW 2505   2.242   3.252   1.180
  619SOL    HW2 2506   2.237   3.340   1.142
  619SOL    HW3 2507   2.160   3.210   1.154
  619SOL    MW4 2508   2.231   3.258   1.171
  620SOL     OW 2509   2.264   3.539   1.083
  620SOL    HW2 2510   2.347   3.572   1.117
  620SOL    HW3 2511   2.279   3.530   0.988
  620SOL    MW4 2512   2.277   3.542   1.075
  621SOL     OW 2513   2.484   3.676   1.194
  621SOL    HW2 2514   2.450   3.687   1.283
  621SOL    HW3 2515   2.474   3.763   1.154
  621SOL    MW4 2516   2.478   3.689   1.200
  622SOL     OW 2517   2.509   3.940   1.072
  622SOL    HW2 2518   2.424   3.979   1.096
  622SOL    HW3 2519   2.498   3.913   0.981
  622SOL    MW4 2520   2.496   3.942   1.063
  623SOL     OW 2521   2.274   4.032   1.175
  623SOL    HW2 2522   2.269   4.124   1.151
  623SOL    HW3 2523   2.188   3.997   1.154
  623SOL    MW4 2524   2.262   4.039   1.169
  624SOL     OW 2525   2.251   4.289   1.098
  624SOL    HW2 2526   2.170   4.334   1.119
  624SOL    HW3 2527   2.251   4.280   1.003
  624SOL    MW4 2528   2.241   4.293   1.088
  625SOL     OW 2529   2.466   4.434   1.207
  625SOL    HW2 2530   2.393   4.382   1.172
  625SOL    HW3 2531   2.451   4.522   1.173
  625SOL    MW4 2532   2.454   4.439   1.198
  626SOL     OW 2533   2.922   0.050   1.104
  626SOL    HW2 2534   2.922  -0.035   1.147
  626SOL    HW3 2535   2.930   0.030   1.010
  626SOL    MW4 2536   2.923   0.036   1.097
  627SOL     OW 2537   2.664   0.115   1.176
  627SOL    HW2 2538   2.673   0.106   1.271
  627SOL    HW3 2539   2.753   0.108   1.143
  627SOL    MW4 2540   2.677   0.113   1.185
  628SOL     OW 2541   2.717   0.363   1.073
  628SOL    HW2 2542   2.689   0.279   1.110
  628SOL    HW3 2543   2.646   0.423   1.095
  628SOL    MW4 2544   2.704   0.360   1.081
  629SOL     OW 2545   2.936   0.464   1.218
  629SOL    HW2 2546   2.936   0.559   1.206
  629SOL    HW3 2547   2.856   0.434   1.176
  629SOL    MW4 2548   2.925   0.473   1.211
  630SOL     OW 2549   2.899   0.732   1.161
  630SOL    HW2 2550   2.973   0.782   1.195
  630SOL    HW3 2551   2.823   0.788   1.176
  630SOL    MW4 2552   2.899   0.746   1.167
  631SOL     OW 2553   2.683   0.892   1.236
  631SOL    HW2 2554   2.707   0.984   1.220
  631SOL    HW3 2555   2.603   0.879   1.186
  631SOL    MW4 2556   2.676   0.903   1.227
  632SOL     OW 2557   2.720   1.154   1.185
  632SOL    HW2 2558   2.796   1.206   1.214
  632SOL    HW3 2559   2.722   1.161   1.090
  632SOL    MW4 2560   2.730   1.162   1.177
  633SOL     OW 2561   2.946   1.318   1.278
  633SOL    HW2 2562   2.982   1.309   1.366
  633SOL    HW3 2563   2.944   1.413   1.262
  633SOL    MW4 2564   2.950   1.329   1.287
  634SOL     OW 2565   2.911   1.592   1.175
  634SOL    HW2 2566   2.998   1.630   1.184
  634SOL    HW3 2567   2.904   1.570   1.082
  634SOL    MW4 2568   2.921   1.594   1.164
  635SOL     OW 2569   2.662   1.670   1.268
  635SOL    HW2 2570   2.741   1.630   1.232
  635SOL    HW3 2571   2.590   1.629   1.219
  635SOL    MW4 2572   2.663   1.659   1.256
  636SOL     OW 2573   2.703   1.944   1.202
  636SOL    HW2 2574   2.784   1.995   1.208
  636SOL    HW3 2575   2.722   1.864   1.251
  636SOL    MW4 2576   2.716   1.940   1.209
  637SOL     OW 2577   2.941   2.077   1.224
  637SOL    HW2 2578   2.950   2.105   1.315
  637SOL    HW3 2579   2.954   2.157   1.173
  637SOL    MW4 2580   2.944   2.091   1.229
  638SOL     OW 2581   2.955   2.341   1.104
  638SOL    HW2 2582   3.028   2.390   1.140
  638SOL    HW3 2583   2.880   2.365   1.159
  638SOL    MW4 2584   2.954   2.351   1.116
  639SOL     OW 2585   2.709   2.439   1.224
  639SOL    HW2 2586   2.700   2.429   1.319
  639SOL    HW3 2587   2.632   2.395   1.188
  639SOL    MW4 2588   2.698   2.432   1.232
  640SOL     OW 2589   2.672   2.690   1.106
  640SOL    HW2 2590   2.684   2.606   1.151
  640SOL    HW3 2591   2.602   2.734   1.154
  640SOL    MW4 2592   2.665   2.685   1.118
  641SOL     OW 2593   2.923   2.812   1.171
  641SOL    HW2 2594   2.930   2.799   1.266
  641SOL    HW3 2595   2.833   2.789   1.150
  641SOL    MW4 2596   2.912   2.808   1.181
  642SOL     OW 2597   2.903   3.088   1.132
  642SOL    HW2 2598   2.893   2.995   1.152
  642SOL    HW3 2599   2.911   3.092   1.037
  642SOL    MW4 2600   2.903   3.076   1.122
  643SOL     OW 2601   2.694   3.275   1.217
  643SOL    HW2 2602   2.771   3.218   1.205
  643SOL    HW3 2603   2.619   3.218   1.197
  643SOL    MW4 2604   2.695   3.260   1.212
  644SOL     OW 2605   2.695   3.516   1.086
  644SOL    HW2 2606   2.682   3.440   1.143
  644SOL    HW3 2607   2.629   3.579   1.115
  644SOL    MW4 2608   2.685   3.514   1.098
  645SOL     OW 2609   2.943   3.580   1.192
  645SOL    HW2 2610   3.011   3.520   1.162
  645SOL    HW3 2611   2.862   3.542   1.158
  645SOL    MW4 2612   2.941   3.567   1.184
  646SOL     OW 2613   2.919   3.852   1.131
  646SOL    HW2 2614   2.992   3.899   1.171
  646SOL    HW3 2615   2.931   3.761   1.158
  646SOL    MW4 2616   2.930   3.846   1.140
  647SOL     OW 2617   2.736   4.068   1.177
  647SOL    HW2 2618   2.796   3.993   1.175
  647SOL    HW3 2619   2.661   4.041   1.125
  647SOL    MW4 2620   2.734   4.055   1.170
  648SOL     OW 2621   2.707   4.338   1.123
  648SOL    HW2 2622   2.712   4.254   1.168
  648SOL    HW3 2623   2.622   4.374   1.150
  648SOL    MW4 2624   2.696   4.332   1.132
  649SOL     OW 2625   2.936   4.463   1.204
  649SOL    HW2 2626   2.991   4.392   1.169
  649SOL    HW3 2627   2.847   4.435   1.183
  649SOL    MW4 2628   2.931   4.450   1.196
  650SOL     OW 2629   3.419   4.639   1.105
  650SOL    HW2 2630   3.476   4.679   1.170
  650SOL    HW3 2631   3.337   4.688   1.111
  650SOL    MW4 2632   3.415   4.651   1.114
  651SOL     OW 2633   3.186   0.109   1.177
  651SOL    HW2 2634   3.178   0.104   1.273
  651SOL    HW3 2635   3.097   0.094   1.145
  651SOL    MW4 2636   3.173   0.106   1.186
  652SOL     OW 2637   3.156   0.363   1.077
  652SOL    HW2 2638   3.163   0.274   1.112
  652SOL    HW3 2639   3.076   0.398   1.115
  652SOL    MW4 2640   3.147   0.356   1.086
  653SOL     OW 2641   3.376   0.490   1.210
  653SOL    HW2 2642   3.354   0.578   1.181
  653SOL    HW3 2643   3.304   0.435   1.180
  653SOL    MW4 2644   3.364   0.494   1.203
  654SOL     OW 2645   3.322   0.744   1.120
  654SOL    HW2 2646   3.238   0.775   1.152
  654SOL    HW3 2647   3.310   0.734   1.026
  654SOL    MW4 2648   3.310   0.746   1.112
  655SOL     OW 2649   3.108   0.902   1.253
  655SOL    HW2 2650   3.140   0.909   1.342
  655SOL    HW3 2651   3.101   0.993   1.222
  655SOL    MW4 2652   3.111   0.915   1.260
  656SOL     OW 2653   3.113   1.157   1.096
  656SOL    HW2 2654   3.204   1.169   1.126
  656SOL    HW3 2655   3.061   1.209   1.157
  656SOL    MW4 2656   3.118   1.165   1.108
  657SOL     OW 2657   3.347   1.245   1.193
  657SOL    HW2 2658   3.361   1.230   1.286
  657SOL    HW3 2659   3.362   1.339   1.181
  657SOL    MW4 2660   3.351   1.256   1.203
  658SOL     OW 2661   3.392   1.497   1.092
  658SOL    HW2 2662   3.476   1.539   1.111
  658SOL    HW3 2663   3.327   1.551   1.137
  658SOL    MW4 2664   3.394   1.509   1.100
  659SOL     OW 2665   3.183   1.658   1.205
  659SOL    HW2 2666   3.185   1.657   1.301
  659SOL    HW3 2667   3.184   1.750   1.182
  659SOL    MW4 2668   3.183   1.670   1.214
  660SOL     OW 2669   3.160   1.921   1.158
  660SOL    HW2 2670   3.227   1.974   1.201
  660SOL    HW3 2671   3.077   1.959   1.188
  660SOL    MW4 2672   3.158   1.933   1.168
  661SOL     OW 2673   3.355   2.079   1.280
  661SOL    HW2 2674   3.416   2.024   1.233
  661SOL    HW3 2675   3.374   2.168   1.250
  661SOL    MW4 2676   3.366   2.084   1.270
  662SOL     OW 2677   3.364   2.309   1.114
  662SOL    HW2 2678   3.437   2.358   1.153
  662SOL    HW3 2679   3.286   2.347   1.154
  662SOL    MW4 2680   3.363   2.320   1.124
  663SOL     OW 2681   3.161   2.419   1.239
  663SOL    HW2 2682   3.151   2.426   1.334
  663SOL    HW3 2683   3.167   2.509   1.209
  663SOL    MW4 2684   3.161   2.431   1.248
  664SOL     OW 2685   3.163   2.675   1.118
  664SOL    HW2 2686   3.081   2.724   1.122
  664SOL    HW3 2687   3.185   2.672   1.024
  664SOL    MW4 2688   3.155   2.681   1.106
  665SOL     OW 2689   3.364   2.826   1.259
  665SOL    HW2 2690   3.368   2.911   1.216
  665SOL    HW3 2691   3.293   2.779   1.215
  665SOL    MW4 2692   3.355   2.831   1.248
  666SOL     OW 2693   3.377   3.057   1.094
  666SOL    HW2 2694   3.451   3.110   1.123
  666SOL    HW3 2695   3.303   3.087   1.147
  666SOL    MW4 2696   3.377   3.068   1.105
  667SOL     OW 2697   3.158   3.162   1.239
  667SOL    HW2 2698   3.152   3.247   1.195
  667SOL    HW3 2699   3.084   3.112   1.205
  667SOL    MW4 2700   3.147   3.167   1.229
  668SOL     OW 2701   3.160   3.424   1.091
  668SOL    HW2 2702   3.226   3.487   1.118
  668SOL    HW3 2703   3.162   3.427   0.995
  668SOL    MW4 2704   3.169   3.433   1.082
  669SOL     OW 2705   3.347   3.606   1.191
  669SOL    HW2 2706   3.369   3.616   1.284
  669SOL    HW3 2707   3.430   3.583   1.149
  669SOL    MW4 2708   3.361   3.605   1.198
  670SOL     OW 2709   3.339   3.863   1.109
  670SOL    HW2 2710   3.259   3.898   1.148
  670SOL    HW3 2711   3.348   3.776   1.146
  670SOL    MW4 2712   3.330   3.856   1.119
  671SOL     OW 2713   3.141   4.003   1.238
  671SOL    HW2 2714   3.136   4.018   1.332
  671SOL    HW3 2715   3.140   4.091   1.200
  671SOL    MW4 2716   3.140   4.016   1.245
  672SOL     OW 2717   3.107   4.259   1.127
  672SOL    HW2 2718   3.186   4.308   1.150
  672SOL    HW3 2719   3.106   4.260   1.031
  672SOL    MW4 2720   3.117   4.266   1.117
  673SOL     OW 2721   3.368   4.331   1.186
  673SOL    HW2 2722   3.450   4.283   1.174
  673SOL    HW3 2723   3.389   4.421   1.160
  673SOL    MW4 2724   3.382   4.336   1.181
  674SOL     OW 2725   3.781   4.625   1.103
  674SOL    HW2 2726   3.798   4.536   1.131
  674SOL    HW3 2727   3.817   4.630   1.014
  674SOL    MW4 2728   3.788   4.614   1.095
  675SOL     OW 2729   3.612   0.129   1.246
  675SOL    HW2 2730   3.621   0.201   1.184
  675SOL    HW3 2731   3.675   0.064   1.216
  675SOL    MW4 2732   3.622   0.130   1.234
  676SOL     OW 2733   3.600   0.381   1.110
  676SOL    HW2 2734   3.668   0.441   1.142
  676SOL    HW3 2735   3.518   0.416   1.144
  676SOL    MW4 2736   3.598   0.393   1.118
  677SOL     OW 2737   3.832   0.496   1.211
  677SOL    HW2 2738   3.908   0.440   1.193
  677SOL    HW3 2739   3.841   0.569   1.150
  677SOL    MW4 2740   3.843   0.498   1.200
  678SOL     OW 2741   3.821   0.741   1.095
  678SOL    HW2 2742   3.904   0.780   1.123
  678SOL    HW3 2743   3.756   0.775   1.156
  678SOL    MW4 2744   3.824   0.751   1.106
  679SOL     OW 2745   3.594   0.868   1.195
  679SOL    HW2 2746   3.580   0.962   1.188
  679SOL    HW3 2747   3.514   0.829   1.160
  679SOL    MW4 2748   3.582   0.875   1.189
  680SOL     OW 2749   3.587   1.133   1.128
  680SOL    HW2 2750   3.653   1.199   1.152
  680SOL    HW3 2751   3.503   1.174   1.148
  680SOL    MW4 2752   3.585   1.147   1.134
  681SOL     OW 2753   3.806   1.285   1.209
  681SOL    HW2 2754   3.829   1.289   1.302
  681SOL    HW3 2755   3.806   1.376   1.181
  681SOL    MW4 2756   3.809   1.297   1.218
  682SOL     OW 2757   3.853   1.546   1.118
  682SOL    HW2 2758   3.932   1.598   1.127
  682SOL    HW3 2759   3.851   1.518   1.027
  682SOL    MW4 2760   3.863   1.549   1.107
  683SOL     OW 2761   3.611   1.638   1.214
  683SOL    HW2 2762   3.601   1.728   1.185
  683SOL    HW3 2763   3.703   1.617   1.198
  683SOL    MW4 2764   3.622   1.647   1.208
  684SOL     OW 2765   3.556   1.905   1.150
  684SOL    HW2 2766   3.635   1.957   1.168
  684SOL    HW3 2767   3.529   1.932   1.062
  684SOL    MW4 2768   3.563   1.915   1.141
  685SOL     OW 2769   3.792   2.061   1.203
  685SOL    HW2 2770   3.813   2.061   1.297
  685SOL    HW3 2771   3.868   2.019   1.162
  685SOL    MW4 2772   3.805   2.055   1.210
  686SOL     OW 2773   3.810   2.322   1.079
  686SOL    HW2 2774   3.893   2.356   1.114
  686SOL    HW3 2775   3.801   2.236   1.119
  686SOL    MW4 2776   3.820   2.315   1.089
  687SOL     OW 2777   3.584   2.455   1.216
  687SOL    HW2 2778   3.579   2.444   1.311
  687SOL    HW3 2779   3.654   2.397   1.188
  687SOL    MW4 2780   3.592   2.446   1.225
  688SOL     OW 2781   3.574   2.717   1.125
  688SOL    HW2 2782   3.585   2.633   1.170
  688SOL    HW3 2783   3.497   2.756   1.165
  688SOL    MW4 2784   3.566   2.711   1.136
  689SOL     OW 2785   3.819   2.839   1.197
  689SOL    HW2 2786   3.807   2.833   1.291
  689SOL    HW3 2787   3.737   2.808   1.159
  689SOL    MW4 2788   3.806   2.834   1.204
  690SOL     OW 2789   3.818   3.104   1.119
  690SOL    HW2 2790   3.827   3.013   1.149
  690SOL    HW3 2791   3.780   3.096   1.031
  690SOL    MW4 2792   3.814   3.091   1.111
  691SOL     OW 2793   3.577   3.219   1.199
  691SOL    HW2 2794   3.579   3.313   1.177
  691SOL    HW3 2795   3.665   3.188   1.178
  691SOL    MW4 2796   3.589   3.227   1.193
  692SOL     OW 2797   3.592   3.514   1.083
  692SOL    HW2 2798   3.676   3.552   1.110
  692SOL    HW3 2799   3.594   3.517   0.987
  692SOL    MW4 2800   3.604   3.519   1.074
  693SOL     OW 2801   3.836   3.596   1.188
  693SOL    HW2 2802   3.829   3.572   1.281
  693SOL    HW3 2803   3.832   3.692   1.189
  693SOL    MW4 2804   3.835   3.606   1.201
  694SOL     OW 2805   3.796   3.881   1.142
  694SOL    HW2 2806   3.708   3.903   1.172
  694SOL    HW3 2807   3.787   3.864   1.049
  694SOL    MW4 2808   3.783   3.881   1.134
  695SOL     OW 2809   3.555   3.989   1.217
  695SOL    HW2 2810   3.574   3.958   1.306
  695SOL    HW3 2811   3.472   3.948   1.194
  695SOL    MW4 2812   3.547   3.979   1.226
  696SOL     OW 2813   3.665   4.211   1.126
  696SOL    HW2 2814   3.627   4.131   1.162
  696SOL    HW3 2815   3.640   4.210   1.033
  696SOL    MW4 2816   3.657   4.200   1.118
  697SOL     OW 2817   3.863   4.391   1.210
  697SOL    HW2 2818   3.880   4.379   1.303
  697SOL    HW3 2819   3.793   4.329   1.190
  697SOL    MW4 2820   3.856   4.382   1.220
  698SOL     OW 2821   4.228   4.617   1.070
  698SOL    HW2 2822   4.236   4.536   1.121
  698SOL    HW3 2823   4.156   4.664   1.112
  698SOL    MW4 2824   4.220   4.613   1.082
  699SOL     OW 2825   4.026   0.078   1.198
  699SOL    HW2 2826   4.040   0.073   1.292
  699SOL    HW3 2827   3.944   0.031   1.183
  699SOL    MW4 2828   4.017   0.071   1.208
  700SOL     OW 2829   4.047   0.350   1.127
  700SOL    HW2 2830   4.051   0.255   1.140
  700SOL    HW3 2831   4.031   0.361   1.033
  700SOL    MW4 2832   4.046   0.339   1.116
  701SOL     OW 2833   4.279   0.497   1.179
  701SOL    HW2 2834   4.280   0.513   1.274
  701SOL    HW3 2835   4.198   0.448   1.165
  701SOL    MW4 2836   4.268   0.493   1.190
  702SOL     OW 2837   4.259   0.768   1.087
  702SOL    HW2 2838   4.265   0.679   1.120
  702SOL    HW3 2839   4.255   0.758   0.992
  702SOL    MW4 2840   4.260   0.755   1.078
  703SOL     OW 2841   4.041   0.858   1.225
  703SOL    HW2 2842   4.058   0.883   1.315
  703SOL    HW3 2843   4.128   0.837   1.189
  703SOL    MW4 2844   4.055   0.858   1.232
  704SOL     OW 2845   4.042   1.123   1.138
  704SOL    HW2 2846   4.038   1.034   1.172
  704SOL    HW3 2847   3.960   1.164   1.167
  704SOL    MW4 2848   4.030   1.117   1.146
  705SOL     OW 2849   4.281   1.246   1.215
  705SOL    HW2 2850   4.259   1.249   1.308
  705SOL    HW3 2851   4.215   1.188   1.177
  705SOL    MW4 2852   4.269   1.239   1.222
  706SOL     OW 2853   4.315   1.524   1.158
  706SOL    HW2 2854   4.294   1.437   1.194
  706SOL    HW3 2855   4.393   1.552   1.206
  706SOL    MW4 2856   4.322   1.516   1.169
  707SOL     OW 2857   4.081   1.682   1.185
  707SOL    HW2 2858   4.070   1.675   1.280
  707SOL    HW3 2859   4.168   1.645   1.169
  707SOL    MW4 2860   4.091   1.676   1.196
  708SOL     OW 2861   4.039   1.942   1.104
  708SOL    HW2 2862   4.038   1.850   1.132
  708SOL    HW3 2863   4.011   1.939   1.013
  708SOL    MW4 2864   4.035   1.929   1.096
  709SOL     OW 2865   4.271   2.034   1.225
  709SOL    HW2 2866   4.273   2.119   1.182
  709SOL    HW3 2867   4.192   1.991   1.191
  709SOL    MW4 2868   4.261   2.039   1.215
  710SOL     OW 2869   4.284   2.298   1.114
  710SOL    HW2 2870   4.203   2.337   1.146
  710SOL    HW3 2871   4.264   2.275   1.023
  710SOL    MW4 2872   4.270   2.300   1.106
  711SOL     OW 2873   4.043   2.420   1.215
  711SOL    HW2 2874   4.059   2.422   1.309
  711SOL    HW3 2875   4.044   2.511   1.188
  711SOL    MW4 2876   4.045   2.432   1.224
  712SOL     OW 2877   4.023   2.675   1.140
  712SOL    HW2 2878   3.944   2.716   1.173
  712SOL    HW3 2879   4.011   2.670   1.045
  712SOL    MW4 2880   4.011   2.680   1.132
  713SOL     OW 2881   4.256   2.824   1.212
  713SOL    HW2 2882   4.244   2.918   1.199
  713SOL    HW3 2883   4.171   2.785   1.192
  713SOL    MW4 2884   4.243   2.831   1.208
  714SOL     OW 2885   4.248   3.096   1.104
  714SOL    HW2 2886   4.168   3.134   1.142
  714SOL    HW3 2887   4.232   3.097   1.010
  714SOL    MW4 2888   4.235   3.101   1.097
  715SOL     OW 2889   4.043   3.239   1.220
  715SOL    HW2 2890   4.032   3.230   1.314
  715SOL    HW3 2891   3.962   3.204   1.183
  715SOL    MW4 2892   4.031   3.233   1.227
  716SOL     OW 2893   4.075   3.482   1.076
  716SOL    HW2 2894   4.075   3.393   1.111
  716SOL    HW3 2895   3.994   3.521   1.109
  716SOL    MW4 2896   4.064   3.476   1.085
  717SOL     OW 2897   4.271   3.597   1.234
  717SOL    HW2 2898   4.207   3.556   1.177
  717SOL    HW3 2899   4.355   3.560   1.207
  717SOL    MW4 2900   4.274   3.587   1.223
  718SOL     OW 2901   4.287   3.827   1.088
  718SOL    HW2 2902   4.210   3.872   1.122
  718SOL    HW3 2903   4.289   3.744   1.137
  718SOL    MW4 2904   4.277   3.822   1.099
  719SOL     OW 2905   4.073   3.950   1.188
  719SOL    HW2 2906   4.072   4.045   1.176
  719SOL    HW3 2907   3.981   3.924   1.178
  719SOL    MW4 2908   4.060   3.959   1.185
  720SOL     OW 2909   4.071   4.235   1.152
  720SOL    HW2 2910   4.000   4.296   1.173
  720SOL    HW3 2911   4.062   4.220   1.058
  720SOL    MW4 2912   4.061   4.241   1.142
  721SOL     OW 2913   4.307   4.389   1.199
  721SOL    HW2 2914   4.229   4.336   1.184
  721SOL    HW3 2915   4.379   4.337   1.162
  721SOL    MW4 2916   4.307   4.375   1.192
  722SOL     OW 2917   0.241   0.025   1.567
  722SOL    HW2 2918   0.315   0.073   1.528
  722SOL    HW3 2919   0.163   0.070   1.535
  722SOL    MW4 2920   0.241   0.037   1.558
  723SOL     OW 2921   4.487   0.149   1.442
  723SOL    HW2 2922   4.416   0.109   1.491
  723SOL    HW3 2923   4.467   0.130   1.350
  723SOL    MW4 2924   4.475   0.141   1.436
  724SOL     OW 2925   4.485   0.383   1.556
  724SOL    HW2 2926   4.503   0.355   1.646
  724SOL    HW3 2927   4.487   0.302   1.505
  724SOL    MW4 2928   4.488   0.368   1.561
  725SOL     OW 2929   0.209   0.541   1.484
  725SOL    HW2 2930   0.137   0.488   1.517
  725SOL    HW3 2931   0.198   0.539   1.389
  725SOL    MW4 2932   0.198   0.534   1.476
  726SOL     OW 2933   0.207   0.793   1.585
  726SOL    HW2 2934   0.294   0.827   1.567
  726SOL    HW3 2935   0.206   0.706   1.545
  726SOL    MW4 2936   0.218   0.786   1.578
  727SOL     OW 2937   4.478   0.940   1.506
  727SOL    HW2 2938   4.499   1.025   1.545
  727SOL    HW3 2939   4.546   0.882   1.540
  727SOL    MW4 2940   4.489   0.944   1.516
  728SOL     OW 2941   0.025   1.211   1.610
  728SOL    HW2 2942   0.016   1.205   1.705
  728SOL    HW3 2943   0.107   1.260   1.597
  728SOL    MW4 2944   0.035   1.216   1.621
  729SOL     OW 2945   0.268   1.299   1.515
  729SOL    HW2 2946   0.290   1.387   1.547
  729SOL    HW3 2947   0.254   1.311   1.421
  729SOL    MW4 2948   0.269   1.312   1.507
  730SOL     OW 2949   0.275   1.551   1.609
  730SOL    HW2 2950   0.267   1.525   1.701
  730SOL    HW3 2951   0.191   1.592   1.588
  730SOL    MW4 2952   0.263   1.553   1.619
  731SOL     OW 2953   0.025   1.666   1.541
  731SOL    HW2 2954   0.024   1.757   1.572
  731SOL    HW3 2955   0.043   1.672   1.448
  731SOL    MW4 2956   0.027   1.679   1.533
  732SOL     OW 2957   0.024   1.928   1.598
  732SOL    HW2 2958   0.038   1.927   1.692
  732SOL    HW3 2959  -0.057   1.979   1.586
  732SOL    MW4 2960   0.015   1.935   1.609
  733SOL     OW 2961   0.244   1.997   1.456
  733SOL    HW2 2962   0.162   1.958   1.484
  733SOL    HW3 2963   0.224   2.038   1.372
  733SOL    MW4 2964   0.230   1.997   1.449
  734SOL     OW 2965   0.257   2.280   1.560
  734SOL    HW2 2966   0.245   2.301   1.653
  734SOL    HW3 2967   0.262   2.185   1.558
  734SOL    MW4 2968   0.256   2.270   1.572
  735SOL     OW 2969   0.010   2.423   1.491
  735SOL    HW2 2970  -0.057   2.365   1.529
  735SOL    HW3 2971   0.092   2.376   1.505
  735SOL    MW4 2972   0.012   2.409   1.498
  736SOL     OW 2973   0.003   2.686   1.602
  736SOL    HW2 2974  -0.076   2.729   1.571
  736SOL    HW3 2975  -0.003   2.597   1.567
  736SOL    MW4 2976  -0.008   2.680   1.593
  737SOL     OW 2977   0.216   2.827   1.491
  737SOL    HW2 2978   0.293   2.788   1.533
  737SOL    HW3 2979   0.142   2.780   1.528
  737SOL    MW4 2980   0.217   2.816   1.501
  738SOL     OW 2981   0.214   3.083   1.601
  738SOL    HW2 2982   0.138   3.133   1.572
  738SOL    HW3 2983   0.202   2.996   1.562
  738SOL    MW4 2984   0.203   3.078   1.592
  739SOL     OW 2985   0.005   3.242   1.492
  739SOL    HW2 2986   0.007   3.332   1.523
  739SOL    HW3 2987   0.012   3.249   1.397
  739SOL    MW4 2988   0.006   3.255   1.483
  740SOL     OW 2989   0.040   3.507   1.581
  740SOL    HW2 2990   0.025   3.484   1.673
  740SOL    HW3 2991  -0.043   3.548   1.553
  740SOL    MW4 2992   0.027   3.509   1.589
  741SOL     OW 2993   0.272   3.610   1.466
  741SOL    HW2 2994   0.254   3.703   1.480
  741SOL    HW3 2995   0.204   3.564   1.515
  741SOL    MW4 2996   0.261   3.616   1.474
  742SOL     OW 2997   0.213   3.869   1.567
  742SOL    HW2 2998   0.217   3.865   1.663
  742SOL    HW3 2999   0.294   3.911   1.541
  742SOL    MW4 3000   0.224   3.874   1.577
  743SOL     OW 3001   4.461   4.017   1.520
  743SOL    HW2 3002   4.484   4.103   1.555
  743SOL    HW3 3003   4.542   3.966   1.527
  743SOL    MW4 3004   4.475   4.022   1.526
  744SOL     OW 3005   0.063   4.281   1.594
  744SOL    HW2 3006   0.051   4.262   1.687
  744SOL    HW3 3007  -0.026   4.301   1.563
  744SOL    MW4 3008   0.049   4.281   1.602
  745SOL     OW 3009   0.269   4.440   1.485
  745SOL    HW2 3010   0.198   4.398   1.533
  745SOL    HW3 3011   0.262   4.533   1.506
  745SOL    MW4 3012   0.259   4.447   1.494
  746SOL     OW 3013   0.685   4.649   1.633
  746SOL    HW2 3014   0.760   4.687   1.588
  746SOL    HW3 3015   0.610   4.678   1.581
  746SOL    MW4 3016   0.685   4.658   1.620
  747SOL     OW 3017   0.491   0.121   1.489
  747SOL    HW2 3018   0.481   0.205   1.532
  747SOL    HW3 3019   0.489   0.141   1.396
  747SOL    MW4 3020   0.490   0.135   1.482
  748SOL     OW 3021   0.445   0.390   1.572
  748SOL    HW2 3022   0.520   0.446   1.551
  748SOL    HW3 3023   0.368   0.443   1.548
  748SOL    MW4 3024   0.445   0.405   1.566
  749SOL     OW 3025   0.681   0.508   1.484
  749SOL    HW2 3026   0.698   0.600   1.501
  749SOL    HW3 3027   0.671   0.502   1.389
  749SOL    MW4 3028   0.682   0.519   1.473
  750SOL     OW 3029   0.699   0.778   1.564
  750SOL    HW2 3030   0.701   0.764   1.659
  750SOL    HW3 3031   0.774   0.835   1.546
  750SOL    MW4 3032   0.709   0.784   1.574
  751SOL     OW 3033   0.448   0.901   1.522
  751SOL    HW2 3034   0.457   0.984   1.570
  751SOL    HW3 3035   0.536   0.864   1.520
  751SOL    MW4 3036   0.461   0.907   1.528
  752SOL     OW 3037   0.480   1.163   1.605
  752SOL    HW2 3038   0.555   1.211   1.572
  752SOL    HW3 3039   0.404   1.213   1.576
  752SOL    MW4 3040   0.480   1.176   1.597
  753SOL     OW 3041   0.693   1.354   1.498
  753SOL    HW2 3042   0.690   1.442   1.538
  753SOL    HW3 3043   0.701   1.371   1.404
  753SOL    MW4 3044   0.693   1.368   1.491
  754SOL     OW 3045   0.710   1.623   1.598
  754SOL    HW2 3046   0.775   1.650   1.534
  754SOL    HW3 3047   0.626   1.651   1.561
  754SOL    MW4 3048   0.707   1.630   1.585
  755SOL     OW 3049   0.477   1.693   1.475
  755SOL    HW2 3050   0.473   1.767   1.536
  755SOL    HW3 3051   0.405   1.635   1.502
  755SOL    MW4 3052   0.467   1.695   1.486
  756SOL     OW 3053   0.455   1.934   1.639
  756SOL    HW2 3054   0.413   1.932   1.725
  756SOL    HW3 3055   0.382   1.942   1.577
  756SOL    MW4 3056   0.440   1.935   1.642
  757SOL     OW 3057   0.662   2.088   1.523
  757SOL    HW2 3058   0.744   2.038   1.529
  757SOL    HW3 3059   0.603   2.044   1.585
  757SOL    MW4 3060   0.665   2.076   1.532
  758SOL     OW 3061   0.671   2.354   1.593
  758SOL    HW2 3062   0.594   2.387   1.547
  758SOL    HW3 3063   0.669   2.259   1.578
  758SOL    MW4 3064   0.661   2.346   1.585
  759SOL     OW 3065   0.445   2.453   1.441
  759SOL    HW2 3066   0.432   2.531   1.495
  759SOL    HW3 3067   0.380   2.391   1.473
  759SOL    MW4 3068   0.434   2.455   1.452
  760SOL     OW 3069   0.442   2.696   1.609
  760SOL    HW2 3070   0.439   2.699   1.705
  760SOL    HW3 3071   0.531   2.725   1.587
  760SOL    MW4 3072   0.454   2.700   1.619
  761SOL     OW 3073   0.693   2.776   1.514
  761SOL    HW2 3074   0.699   2.870   1.531
  761SOL    HW3 3075   0.706   2.767   1.420
  761SOL    MW4 3076   0.695   2.787   1.504
  762SOL     OW 3077   0.668   3.035   1.591
  762SOL    HW2 3078   0.744   3.090   1.575
  762SOL    HW3 3079   0.593   3.088   1.565
  762SOL    MW4 3080   0.668   3.049   1.586
  763SOL     OW 3081   0.456   3.189   1.496
  763SOL    HW2 3082   0.374   3.154   1.531
  763SOL    HW3 3083   0.448   3.179   1.401
  763SOL    MW4 3084   0.444   3.183   1.488
  764SOL     OW 3085   0.435   3.451   1.611
  764SOL    HW2 3086   0.435   3.363   1.572
  764SOL    HW3 3087   0.385   3.504   1.550
  764SOL    MW4 3088   0.428   3.446   1.598
  765SOL     OW 3089   0.670   3.602   1.495
  765SOL    HW2 3090   0.735   3.555   1.547
  765SOL    HW3 3091   0.589   3.553   1.510
  765SOL    MW4 3092   0.668   3.589   1.504
  766SOL     OW 3093   0.677   3.874   1.584
  766SOL    HW2 3094   0.759   3.907   1.549
  766SOL    HW3 3095   0.674   3.782   1.556
  766SOL    MW4 3096   0.687   3.866   1.576
  767SOL     OW 3097   0.436   3.998   1.495
  767SOL    HW2 3098   0.498   3.940   1.538
  767SOL    HW3 3099   0.470   4.007   1.405
  767SOL    MW4 3100   0.449   3.991   1.489
  768SOL     OW 3101   0.466   4.266   1.589
  768SOL    HW2 3102   0.447   4.181   1.550
  768SOL    HW3 3103   0.394   4.322   1.561
  768SOL    MW4 3104   0.454   4.262   1.580
  769SOL     OW 3105   0.687   4.408   1.505
  769SOL    HW2 3106   0.610   4.357   1.528
  769SOL    HW3 3107   0.686   4.481   1.567
  769SOL    MW4 3108   0.677   4.411   1.516
  770SOL     OW 3109   1.106   4.627   1.629
  770SOL    HW2 3110   1.120   4.638   1.723
  770SOL    HW3 3111   1.170   4.686   1.589
  770SOL    MW4 3112   1.117   4.636   1.636
  771SOL     OW 3113   0.897   0.076   1.499
  771SOL    HW2 3114   0.911   0.166   1.528
  771SOL    HW3 3115   0.961   0.025   1.548
  771SOL    MW4 3116   0.907   0.081   1.509
  772SOL     OW 3117   0.900   0.345   1.549
  772SOL    HW2 3118   0.904   0.350   1.645
  772SOL    HW3 3119   0.820   0.393   1.526
  772SOL    MW4 3120   0.890   0.352   1.559
  773SOL     OW 3121   1.143   0.483   1.536
  773SOL    HW2 3122   1.121   0.567   1.575
  773SOL    HW3 3123   1.059   0.440   1.522
  773SOL    MW4 3124   1.129   0.488   1.540
  774SOL     OW 3125   1.092   0.756   1.575
  774SOL    HW2 3126   1.085   0.765   1.670
  774SOL    HW3 3127   1.166   0.813   1.551
  774SOL    MW4 3128   1.101   0.765   1.584
  775SOL     OW 3129   0.893   0.957   1.490
  775SOL    HW2 3130   0.975   0.918   1.518
  775SOL    HW3 3131   0.890   0.942   1.396
  775SOL    MW4 3132   0.903   0.950   1.481
  776SOL     OW 3133   0.918   1.202   1.597
  776SOL    HW2 3134   0.900   1.118   1.556
  776SOL    HW3 3135   0.845   1.258   1.572
  776SOL    MW4 3136   0.906   1.199   1.588
  777SOL     OW 3137   1.150   1.307   1.451
  777SOL    HW2 3138   1.222   1.254   1.484
  777SOL    HW3 3139   1.073   1.274   1.496
  777SOL    MW4 3140   1.150   1.296   1.461
  778SOL     OW 3141   1.174   1.569   1.556
  778SOL    HW2 3142   1.256   1.607   1.524
  778SOL    HW3 3143   1.176   1.479   1.523
  778SOL    MW4 3144   1.185   1.562   1.548
  779SOL     OW 3145   0.925   1.689   1.433
  779SOL    HW2 3146   1.008   1.656   1.468
  779SOL    HW3 3147   0.924   1.662   1.342
  779SOL    MW4 3148   0.936   1.681   1.426
  780SOL     OW 3149   0.895   1.957   1.587
  780SOL    HW2 3150   0.970   1.996   1.542
  780SOL    HW3 3151   0.884   1.872   1.545
  780SOL    MW4 3152   0.903   1.951   1.575
  781SOL     OW 3153   1.123   2.071   1.471
  781SOL    HW2 3154   1.205   2.038   1.507
  781SOL    HW3 3155   1.107   2.154   1.517
  781SOL    MW4 3156   1.132   2.078   1.482
  782SOL     OW 3157   1.164   2.336   1.573
  782SOL    HW2 3158   1.230   2.399   1.545
  782SOL    HW3 3159   1.081   2.373   1.541
  782SOL    MW4 3160   1.161   2.350   1.565
  783SOL     OW 3161   0.909   2.443   1.499
  783SOL    HW2 3162   0.917   2.536   1.519
  783SOL    HW3 3163   0.824   2.418   1.534
  783SOL    MW4 3164   0.899   2.452   1.506
  784SOL     OW 3165   0.937   2.705   1.612
  784SOL    HW2 3166   0.925   2.671   1.701
  784SOL    HW3 3167   0.848   2.719   1.580
  784SOL    MW4 3168   0.924   2.702   1.620
  785SOL     OW 3169   1.126   2.832   1.479
  785SOL    HW2 3170   1.108   2.923   1.502
  785SOL    HW3 3171   1.073   2.781   1.540
  785SOL    MW4 3172   1.117   2.837   1.490
  786SOL     OW 3173   1.116   3.093   1.595
  786SOL    HW2 3174   1.115   3.081   1.690
  786SOL    HW3 3175   1.200   3.137   1.578
  786SOL    MW4 3176   1.127   3.097   1.606
  787SOL     OW 3177   0.885   3.229   1.520
  787SOL    HW2 3178   0.967   3.192   1.554
  787SOL    HW3 3179   0.892   3.221   1.425
  787SOL    MW4 3180   0.897   3.223   1.512
  788SOL     OW 3181   0.883   3.495   1.623
  788SOL    HW2 3182   0.955   3.528   1.570
  788SOL    HW3 3183   0.862   3.410   1.584
  788SOL    MW4 3184   0.889   3.488   1.611
  789SOL     OW 3185   1.088   3.641   1.488
  789SOL    HW2 3186   1.165   3.598   1.528
  789SOL    HW3 3187   1.104   3.635   1.394
  789SOL    MW4 3188   1.101   3.634   1.481
  790SOL     OW 3189   1.100   3.880   1.626
  790SOL    HW2 3190   1.182   3.924   1.605
  790SOL    HW3 3191   1.104   3.798   1.577
  790SOL    MW4 3192   1.111   3.875   1.616
  791SOL     OW 3193   0.884   3.992   1.485
  791SOL    HW2 3194   0.880   4.082   1.519
  791SOL    HW3 3195   0.965   3.957   1.522
  791SOL    MW4 3196   0.894   3.999   1.494
  792SOL     OW 3197   0.897   4.259   1.601
  792SOL    HW2 3198   0.901   4.247   1.696
  792SOL    HW3 3199   0.815   4.306   1.586
  792SOL    MW4 3200   0.886   4.264   1.611
  793SOL     OW 3201   1.134   4.381   1.514
  793SOL    HW2 3202   1.062   4.326   1.545
  793SOL    HW3 3203   1.120   4.465   1.557
  793SOL    MW4 3204   1.123   4.385   1.523
  794SOL     OW 3205   1.570   4.646   1.608
  794SOL    HW2 3206   1.589   4.636   1.701
  794SOL    HW3 3207   1.485   4.692   1.606
  794SOL    MW4 3208   1.561   4.651   1.620
  795SOL     OW 3209   1.316   0.111   1.540
  795SOL    HW2 3210   1.324   0.191   1.593
  795SOL    HW3 3211   1.327   0.141   1.450
  795SOL    MW4 3212   1.318   0.126   1.535
  796SOL     OW 3213   1.395   0.364   1.635
  796SOL    HW2 3214   1.463   0.405   1.582
  796SOL    HW3 3215   1.315   0.412   1.613
  796SOL    MW4 3216   1.393   0.376   1.625
  797SOL     OW 3217   1.572   0.496   1.451
  797SOL    HW2 3218   1.651   0.457   1.487
  797SOL    HW3 3219   1.587   0.499   1.356
  797SOL    MW4 3220   1.585   0.491   1.443
  798SOL     OW 3221   1.565   0.756   1.560
  798SOL    HW2 3222   1.577   0.736   1.653
  798SOL    HW3 3223   1.556   0.670   1.518
  798SOL    MW4 3224   1.565   0.742   1.567
  799SOL     OW 3225   1.324   0.897   1.483
  799SOL    HW2 3226   1.395   0.844   1.520
  799SOL    HW3 3227   1.321   0.872   1.391
  799SOL    MW4 3228   1.333   0.887   1.476
  800SOL     OW 3229   1.373   1.172   1.556
  800SOL    HW2 3230   1.362   1.159   1.650
  800SOL    HW3 3231   1.367   1.084   1.519
  800SOL    MW4 3232   1.371   1.159   1.564
  801SOL     OW 3233   1.599   1.293   1.475
  801SOL    HW2 3234   1.515   1.254   1.501
  801SOL    HW3 3235   1.602   1.283   1.380
  801SOL    MW4 3236   1.588   1.287   1.466
  802SOL     OW 3237   1.563   1.562   1.572
  802SOL    HW2 3238   1.563   1.548   1.667
  802SOL    HW3 3239   1.578   1.475   1.535
  802SOL    MW4 3240   1.565   1.549   1.580
  803SOL     OW 3241   1.377   1.735   1.444
  803SOL    HW2 3242   1.444   1.689   1.494
  803SOL    HW3 3243   1.379   1.693   1.358
  803SOL    MW4 3244   1.386   1.723   1.439
  804SOL     OW 3245   1.363   1.976   1.577
  804SOL    HW2 3246   1.331   1.964   1.667
  804SOL    HW3 3247   1.380   1.888   1.546
  804SOL    MW4 3248   1.361   1.963   1.585
  805SOL     OW 3249   1.581   2.116   1.488
  805SOL    HW2 3250   1.500   2.077   1.519
  805SOL    HW3 3251   1.583   2.097   1.394
  805SOL    MW4 3252   1.571   2.109   1.479
  806SOL     OW 3253   1.593   2.372   1.580
  806SOL    HW2 3254   1.675   2.418   1.565
  806SOL    HW3 3255   1.601   2.292   1.528
  806SOL    MW4 3256   1.605   2.367   1.571
  807SOL     OW 3257   1.376   2.496   1.468
  807SOL    HW2 3258   1.376   2.580   1.513
  807SOL    HW3 3259   1.457   2.454   1.497
  807SOL    MW4 3260   1.387   2.501   1.478
  808SOL     OW 3261   1.378   2.751   1.588
  808SOL    HW2 3262   1.457   2.803   1.578
  808SOL    HW3 3263   1.309   2.803   1.547
  808SOL    MW4 3264   1.379   2.764   1.582
  809SOL     OW 3265   1.620   2.867   1.520
  809SOL    HW2 3266   1.705   2.848   1.562
  809SOL    HW3 3267   1.636   2.853   1.427
  809SOL    MW4 3268   1.634   2.862   1.514
  810SOL     OW 3269   1.570   3.122   1.607
  810SOL    HW2 3270   1.632   3.179   1.561
  810SOL    HW3 3271   1.593   3.033   1.579
  810SOL    MW4 3272   1.581   3.118   1.597
  811SOL     OW 3273   1.335   3.236   1.527
  811SOL    HW2 3274   1.327   3.331   1.538
  811SOL    HW3 3275   1.421   3.214   1.564
  811SOL    MW4 3276   1.345   3.246   1.533
  812SOL     OW 3277   1.314   3.509   1.569
  812SOL    HW2 3278   1.312   3.508   1.665
  812SOL    HW3 3279   1.401   3.543   1.547
  812SOL    MW4 3280   1.326   3.513   1.579
  813SOL     OW 3281   1.568   3.623   1.520
  813SOL    HW2 3282   1.584   3.707   1.563
  813SOL    HW3 3283   1.580   3.640   1.427
  813SOL    MW4 3284   1.572   3.636   1.514
  814SOL     OW 3285   1.590   3.875   1.620
  814SOL    HW2 3286   1.586   3.902   1.711
  814SOL    HW3 3287   1.508   3.907   1.581
  814SOL    MW4 3288   1.579   3.883   1.627
  815SOL     OW 3289   1.347   3.984   1.527
  815SOL    HW2 3290   1.347   4.078   1.547
  815SOL    HW3 3291   1.348   3.980   1.432
  815SOL    MW4 3292   1.347   3.996   1.517
  816SOL     OW 3293   1.363   4.257   1.566
  816SOL    HW2 3294   1.431   4.313   1.528
  816SOL    HW3 3295   1.281   4.302   1.545
  816SOL    MW4 3296   1.361   4.271   1.558
  817SOL     OW 3297   1.552   4.413   1.455
  817SOL    HW2 3298   1.631   4.368   1.482
  817SOL    HW3 3299   1.552   4.494   1.505
  817SOL    MW4 3300   1.562   4.418   1.465
  818SOL     OW 3301   2.040   4.648   1.583
  818SOL    HW2 3302   2.040   4.638   1.678
  818SOL    HW3 3303   1.958   4.694   1.564
  818SOL    MW4 3304   2.029   4.653   1.593
  819SOL     OW 3305   1.797   0.109   1.505
  819SOL    HW2 3306   1.715   0.062   1.523
  819SOL    HW3 3307   1.797   0.121   1.410
  819SOL    MW4 3308   1.786   0.104   1.495
  820SOL     OW 3309   1.797   0.378   1.568
  820SOL    HW2 3310   1.875   0.419   1.529
  820SOL    HW3 3311   1.807   0.285   1.549
  820SOL    MW4 3312   1.809   0.371   1.560
  821SOL     OW 3313   2.028   0.449   1.463
  821SOL    HW2 3314   2.100   0.418   1.519
  821SOL    HW3 3315   2.033   0.544   1.469
  821SOL    MW4 3316   2.038   0.457   1.471
  822SOL     OW 3317   2.053   0.733   1.550
  822SOL    HW2 3318   2.122   0.801   1.547
  822SOL    HW3 3319   1.971   0.783   1.554
  822SOL    MW4 3320   2.051   0.749   1.550
  823SOL     OW 3321   1.812   0.883   1.524
  823SOL    HW2 3322   1.803   0.972   1.557
  823SOL    HW3 3323   1.729   0.840   1.547
  823SOL    MW4 3324   1.800   0.889   1.531
  824SOL     OW 3325   1.795   1.150   1.592
  824SOL    HW2 3326   1.880   1.174   1.557
  824SOL    HW3 3327   1.733   1.208   1.547
  824SOL    MW4 3328   1.798   1.161   1.582
  825SOL     OW 3329   2.013   1.266   1.474
  825SOL    HW2 3330   1.989   1.357   1.494
  825SOL    HW3 3331   2.019   1.264   1.378
  825SOL    MW4 3332   2.010   1.278   1.464
  826SOL     OW 3333   1.954   1.522   1.578
  826SOL    HW2 3334   2.034   1.567   1.553
  826SOL    HW3 3335   1.885   1.588   1.567
  826SOL    MW4 3336   1.955   1.537   1.573
  827SOL     OW 3337   1.783   1.728   1.528
  827SOL    HW2 3338   1.712   1.667   1.546
  827SOL    HW3 3339   1.808   1.710   1.437
  827SOL    MW4 3340   1.777   1.717   1.518
  828SOL     OW 3341   1.806   2.008   1.635
  828SOL    HW2 3342   1.819   1.919   1.603
  828SOL    HW3 3343   1.729   2.040   1.587
  828SOL    MW4 3344   1.797   2.000   1.625
  829SOL     OW 3345   2.037   2.079   1.509
  829SOL    HW2 3346   2.102   2.014   1.536
  829SOL    HW3 3347   1.955   2.049   1.547
  829SOL    MW4 3348   2.035   2.066   1.517
  830SOL     OW 3349   2.043   2.335   1.603
  830SOL    HW2 3350   2.023   2.335   1.697
  830SOL    HW3 3351   2.042   2.242   1.579
  830SOL    MW4 3352   2.041   2.322   1.613
  831SOL     OW 3353   1.818   2.490   1.511
  831SOL    HW2 3354   1.889   2.433   1.541
  831SOL    HW3 3355   1.823   2.486   1.416
  831SOL    MW4 3356   1.828   2.482   1.502
  832SOL     OW 3357   1.862   2.761   1.598
  832SOL    HW2 3358   1.934   2.800   1.549
  832SOL    HW3 3359   1.855   2.672   1.562
  832SOL    MW4 3360   1.870   2.754   1.587
  833SOL     OW 3361   2.067   2.855   1.438
  833SOL    HW2 3362   2.059   2.947   1.463
  833SOL    HW3 3363   2.031   2.851   1.349
  833SOL    MW4 3364   2.061   2.866   1.429
  834SOL     OW 3365   1.998   3.116   1.530
  834SOL    HW2 3366   2.004   3.121   1.626
  834SOL    HW3 3367   2.078   3.158   1.499
  834SOL    MW4 3368   2.009   3.122   1.539
  835SOL     OW 3369   1.785   3.251   1.449
  835SOL    HW2 3370   1.799   3.329   1.504
  835SOL    HW3 3371   1.850   3.188   1.480
  835SOL    MW4 3372   1.795   3.253   1.460
  836SOL     OW 3373   1.788   3.475   1.603
  836SOL    HW2 3374   1.797   3.479   1.698
  836SOL    HW3 3375   1.715   3.533   1.583
  836SOL    MW4 3376   1.780   3.483   1.613
  837SOL     OW 3377   2.012   3.630   1.498
  837SOL    HW2 3378   2.091   3.583   1.523
  837SOL    HW3 3379   1.940   3.575   1.531
  837SOL    MW4 3380   2.013   3.617   1.506
  838SOL     OW 3381   2.026   3.885   1.582
  838SOL    HW2 3382   2.091   3.924   1.524
  838SOL    HW3 3383   2.024   3.792   1.556
  838SOL    MW4 3384   2.034   3.878   1.571
  839SOL     OW 3385   1.792   4.004   1.491
  839SOL    HW2 3386   1.867   3.957   1.527
  839SOL    HW3 3387   1.718   3.976   1.546
  839SOL    MW4 3388   1.792   3.994   1.503
  840SOL     OW 3389   1.789   4.273   1.547
  840SOL    HW2 3390   1.874   4.308   1.521
  840SOL    HW3 3391   1.789   4.183   1.515
  840SOL    MW4 3392   1.800   4.266   1.539
  841SOL     OW 3393   2.049   4.379   1.455
  841SOL    HW2 3394   2.127   4.329   1.479
  841SOL    HW3 3395   2.054   4.459   1.506
  841SOL    MW4 3396   2.060   4.383   1.465
  842SOL     OW 3397   2.495   4.634   1.563
  842SOL    HW2 3398   2.496   4.630   1.659
  842SOL    HW3 3399   2.412   4.676   1.541
  842SOL    MW4 3400   2.484   4.639   1.573
  843SOL     OW 3401   2.268   0.120   1.509
  843SOL    HW2 3402   2.192   0.062   1.523
  843SOL    HW3 3403   2.268   0.137   1.415
  843SOL    MW4 3404   2.258   0.114   1.499
  844SOL     OW 3405   2.265   0.377   1.596
  844SOL    HW2 3406   2.246   0.386   1.690
  844SOL    HW3 3407   2.259   0.283   1.579
  844SOL    MW4 3408   2.261   0.366   1.607
  845SOL     OW 3409   2.460   0.521   1.442
  845SOL    HW2 3410   2.532   0.468   1.474
  845SOL    HW3 3411   2.384   0.491   1.492
  845SOL    MW4 3412   2.459   0.510   1.453
  846SOL     OW 3413   2.478   0.758   1.623
  846SOL    HW2 3414   2.410   0.817   1.591
  846SOL    HW3 3415   2.468   0.679   1.571
  846SOL    MW4 3416   2.468   0.756   1.612
  847SOL     OW 3417   2.279   0.906   1.499
  847SOL    HW2 3418   2.275   1.000   1.517
  847SOL    HW3 3419   2.264   0.899   1.404
  847SOL    MW4 3420   2.277   0.918   1.489
  848SOL     OW 3421   2.251   1.154   1.593
  848SOL    HW2 3422   2.253   1.167   1.688
  848SOL    HW3 3423   2.168   1.193   1.565
  848SOL    MW4 3424   2.240   1.161   1.602
  849SOL     OW 3425   2.475   1.295   1.494
  849SOL    HW2 3426   2.404   1.240   1.526
  849SOL    HW3 3427   2.464   1.295   1.399
  849SOL    MW4 3428   2.464   1.288   1.485
  850SOL     OW 3429   2.436   1.530   1.619
  850SOL    HW2 3430   2.506   1.591   1.594
  850SOL    HW3 3431   2.457   1.449   1.574
  850SOL    MW4 3432   2.448   1.528   1.610
  851SOL     OW 3433   2.208   1.617   1.503
  851SOL    HW2 3434   2.287   1.568   1.525
  851SOL    HW3 3435   2.221   1.644   1.412
  851SOL    MW4 3436   2.220   1.614   1.494
  852SOL     OW 3437   2.226   1.893   1.583
  852SOL    HW2 3438   2.224   1.902   1.678
  852SOL    HW3 3439   2.226   1.799   1.567
  852SOL    MW4 3440   2.226   1.882   1.594
  853SOL     OW 3441   2.476   2.049   1.525
  853SOL    HW2 3442   2.402   1.991   1.544
  853SOL    HW3 3443   2.471   2.063   1.431
  853SOL    MW4 3444   2.465   2.043   1.515
  854SOL     OW 3445   2.422   2.309   1.584
  854SOL    HW2 3446   2.438   2.316   1.679
  854SOL    HW3 3447   2.427   2.215   1.567
  854SOL    MW4 3448   2.425   2.297   1.595
  855SOL     OW 3449   2.235   2.492   1.484
  855SOL    HW2 3450   2.311   2.435   1.494
  855SOL    HW3 3451   2.161   2.438   1.512
  855SOL    MW4 3452   2.235   2.477   1.489
  856SOL     OW 3453   2.230   2.717   1.620
  856SOL    HW2 3454   2.240   2.630   1.579
  856SOL    HW3 3455   2.174   2.765   1.559
  856SOL    MW4 3456   2.224   2.712   1.606
  857SOL     OW 3457   2.464   2.819   1.538
  857SOL    HW2 3458   2.457   2.912   1.561
  857SOL    HW3 3459   2.382   2.780   1.568
  857SOL    MW4 3460   2.453   2.826   1.545
  858SOL     OW 3461   2.444   3.099   1.573
  858SOL    HW2 3462   2.507   3.165   1.546
  858SOL    HW3 3463   2.359   3.134   1.546
  858SOL    MW4 3464   2.441   3.113   1.566
  859SOL     OW 3465   2.229   3.225   1.442
  859SOL    HW2 3466   2.219   3.312   1.481
  859SOL    HW3 3467   2.235   3.243   1.348
  859SOL    MW4 3468   2.229   3.239   1.435
  860SOL     OW 3469   2.228   3.481   1.575
  860SOL    HW2 3470   2.237   3.479   1.670
  860SOL    HW3 3471   2.302   3.534   1.545
  860SOL    MW4 3472   2.239   3.488   1.583
  861SOL     OW 3473   2.429   3.656   1.458
  861SOL    HW2 3474   2.499   3.601   1.494
  861SOL    HW3 3475   2.442   3.741   1.501
  861SOL    MW4 3476   2.440   3.660   1.469
  862SOL     OW 3477   2.460   3.941   1.539
  862SOL    HW2 3478   2.465   3.930   1.634
  862SOL    HW3 3479   2.552   3.947   1.512
  862SOL    MW4 3480   2.473   3.941   1.548
  863SOL     OW 3481   2.212   4.016   1.438
  863SOL    HW2 3482   2.291   3.984   1.481
  863SOL    HW3 3483   2.231   4.011   1.345
  863SOL    MW4 3484   2.225   4.011   1.432
  864SOL     OW 3485   2.250   4.255   1.580
  864SOL    HW2 3486   2.339   4.272   1.550
  864SOL    HW3 3487   2.225   4.174   1.537
  864SOL    MW4 3488   2.259   4.247   1.570
  865SOL     OW 3489   2.489   4.351   1.494
  865SOL    HW2 3490   2.470   4.442   1.516
  865SOL    HW3 3491   2.477   4.347   1.399
  865SOL    MW4 3492   2.485   4.362   1.484
  866SOL     OW 3493   2.918   0.007   1.552
  866SOL    HW2 3494   2.915   0.017   1.647
  866SOL    HW3 3495   2.835   0.043   1.521
  866SOL    MW4 3496   2.907   0.013   1.560
  867SOL     OW 3497   2.690   0.108   1.452
  867SOL    HW2 3498   2.675   0.195   1.488
  867SOL    HW3 3499   2.627   0.052   1.497
  867SOL    MW4 3500   2.680   0.112   1.462
  868SOL     OW 3501   2.681   0.361   1.559
  868SOL    HW2 3502   2.687   0.378   1.653
  868SOL    HW3 3503   2.768   0.382   1.526
  868SOL    MW4 3504   2.693   0.366   1.567
  869SOL     OW 3505   2.942   0.450   1.499
  869SOL    HW2 3506   2.923   0.535   1.541
  869SOL    HW3 3507   2.945   0.470   1.406
  869SOL    MW4 3508   2.940   0.464   1.492
  870SOL     OW 3509   2.933   0.719   1.578
  870SOL    HW2 3510   2.941   0.716   1.674
  870SOL    HW3 3511   2.850   0.765   1.563
  870SOL    MW4 3512   2.923   0.724   1.589
  871SOL     OW 3513   2.709   0.882   1.523
  871SOL    HW2 3514   2.630   0.843   1.561
  871SOL    HW3 3515   2.692   0.885   1.429
  871SOL    MW4 3516   2.697   0.877   1.516
  872SOL     OW 3517   2.714   1.145   1.615
  872SOL    HW2 3518   2.703   1.051   1.598
  872SOL    HW3 3519   2.653   1.187   1.553
  872SOL    MW4 3520   2.704   1.138   1.604
  873SOL     OW 3521   2.949   1.275   1.554
  873SOL    HW2 3522   3.022   1.238   1.602
  873SOL    HW3 3523   2.872   1.226   1.585
  873SOL    MW4 3524   2.948   1.264   1.564
  874SOL     OW 3525   2.941   1.583   1.609
  874SOL    HW2 3526   2.851   1.605   1.587
  874SOL    HW3 3527   2.947   1.489   1.596
  874SOL    MW4 3528   2.930   1.574   1.605
  875SOL     OW 3529   2.695   1.664   1.533
  875SOL    HW2 3530   2.685   1.757   1.553
  875SOL    HW3 3531   2.693   1.660   1.437
  875SOL    MW4 3532   2.694   1.676   1.523
  876SOL     OW 3533   2.718   1.945   1.597
  876SOL    HW2 3534   2.712   1.930   1.691
  876SOL    HW3 3535   2.637   1.992   1.576
  876SOL    MW4 3536   2.707   1.950   1.607
  877SOL     OW 3537   2.934   2.101   1.495
  877SOL    HW2 3538   2.932   2.177   1.552
  877SOL    HW3 3539   2.853   2.054   1.513
  877SOL    MW4 3540   2.923   2.105   1.505
  878SOL     OW 3541   2.919   2.329   1.636
  878SOL    HW2 3542   2.889   2.318   1.726
  878SOL    HW3 3543   2.848   2.377   1.593
  878SOL    MW4 3544   2.905   2.334   1.642
  879SOL     OW 3545   2.687   2.412   1.521
  879SOL    HW2 3546   2.678   2.503   1.551
  879SOL    HW3 3547   2.608   2.369   1.554
  879SOL    MW4 3548   2.675   2.418   1.529
  880SOL     OW 3549   2.702   2.687   1.636
  880SOL    HW2 3550   2.765   2.735   1.582
  880SOL    HW3 3551   2.619   2.734   1.623
  880SOL    MW4 3552   2.699   2.700   1.627
  881SOL     OW 3553   2.918   2.825   1.473
  881SOL    HW2 3554   2.976   2.780   1.534
  881SOL    HW3 3555   2.907   2.913   1.510
  881SOL    MW4 3556   2.924   2.831   1.486
  882SOL     OW 3557   2.865   3.086   1.573
  882SOL    HW2 3558   2.856   3.089   1.668
  882SOL    HW3 3559   2.946   3.134   1.555
  882SOL    MW4 3560   2.875   3.092   1.583
  883SOL     OW 3561   2.669   3.269   1.504
  883SOL    HW2 3562   2.740   3.208   1.526
  883SOL    HW3 3563   2.675   3.280   1.409
  883SOL    MW4 3564   2.679   3.263   1.495
  884SOL     OW 3565   2.647   3.528   1.592
  884SOL    HW2 3566   2.650   3.529   1.687
  884SOL    HW3 3567   2.670   3.438   1.568
  884SOL    MW4 3568   2.651   3.516   1.601
  885SOL     OW 3569   2.919   3.607   1.491
  885SOL    HW2 3570   2.836   3.563   1.509
  885SOL    HW3 3571   2.933   3.595   1.397
  885SOL    MW4 3572   2.910   3.600   1.481
  886SOL     OW 3573   2.898   3.869   1.615
  886SOL    HW2 3574   2.837   3.920   1.561
  886SOL    HW3 3575   2.892   3.780   1.580
  886SOL    MW4 3576   2.889   3.864   1.604
  887SOL     OW 3577   2.711   4.009   1.471
  887SOL    HW2 3578   2.713   4.090   1.522
  887SOL    HW3 3579   2.708   4.038   1.380
  887SOL    MW4 3580   2.711   4.023   1.466
  888SOL     OW 3581   2.725   4.259   1.582
  888SOL    HW2 3582   2.790   4.319   1.545
  888SOL    HW3 3583   2.641   4.295   1.555
  888SOL    MW4 3584   2.723   4.272   1.573
  889SOL     OW 3585   2.933   4.416   1.474
  889SOL    HW2 3586   2.916   4.506   1.501
  889SOL    HW3 3587   2.939   4.421   1.378
  889SOL    MW4 3588   2.932   4.429   1.465
  890SOL     OW 3589   3.384   4.607   1.587
  890SOL    HW2 3590   3.445   4.668   1.545
  890SOL    HW3 3591   3.409   4.521   1.552
  890SOL    MW4 3592   3.395   4.604   1.577
  891SOL     OW 3593   3.173   0.091   1.475
  891SOL    HW2 3594   3.222   0.033   1.533
  891SOL    HW3 3595   3.081   0.071   1.493
  891SOL    MW4 3596   3.167   0.080   1.485
  892SOL     OW 3597   3.194   0.340   1.604
  892SOL    HW2 3598   3.209   0.259   1.555
  892SOL    HW3 3599   3.109   0.371   1.574
  892SOL    MW4 3600   3.185   0.333   1.593
  893SOL     OW 3601   3.392   0.519   1.494
  893SOL    HW2 3602   3.319   0.468   1.529
  893SOL    HW3 3603   3.380   0.515   1.399
  893SOL    MW4 3604   3.381   0.512   1.486
  894SOL     OW 3605   3.391   0.784   1.597
  894SOL    HW2 3606   3.408   0.783   1.692
  894SOL    HW3 3607   3.402   0.693   1.570
  894SOL    MW4 3608   3.395   0.772   1.606
  895SOL     OW 3609   3.146   0.890   1.554
  895SOL    HW2 3610   3.234   0.851   1.559
  895SOL    HW3 3611   3.087   0.815   1.556
  895SOL    MW4 3612   3.150   0.875   1.555
  896SOL     OW 3613   3.164   1.149   1.664
  896SOL    HW2 3614   3.172   1.139   1.759
  896SOL    HW3 3615   3.156   1.059   1.632
  896SOL    MW4 3616   3.164   1.136   1.672
  897SOL     OW 3617   3.368   1.241   1.475
  897SOL    HW2 3618   3.448   1.211   1.518
  897SOL    HW3 3619   3.298   1.220   1.537
  897SOL    MW4 3620   3.369   1.234   1.489
  898SOL     OW 3621   3.346   1.535   1.584
  898SOL    HW2 3622   3.366   1.530   1.678
  898SOL    HW3 3623   3.350   1.444   1.555
  898SOL    MW4 3624   3.349   1.522   1.593
  899SOL     OW 3625   3.149   1.675   1.476
  899SOL    HW2 3626   3.225   1.632   1.514
  899SOL    HW3 3627   3.074   1.640   1.524
  899SOL    MW4 3628   3.149   1.665   1.487
  900SOL     OW 3629   3.136   1.941   1.602
  900SOL    HW2 3630   3.131   1.862   1.549
  900SOL    HW3 3631   3.072   2.000   1.564
  900SOL    MW4 3632   3.127   1.939   1.590
  901SOL     OW 3633   3.386   2.058   1.561
  901SOL    HW2 3634   3.304   2.019   1.592
  901SOL    HW3 3635   3.376   2.062   1.466
  901SOL    MW4 3636   3.373   2.053   1.552
  902SOL     OW 3637   3.346   2.321   1.602
  902SOL    HW2 3638   3.430   2.345   1.562
  902SOL    HW3 3639   3.351   2.226   1.614
  902SOL    MW4 3640   3.358   2.312   1.598
  903SOL     OW 3641   3.119   2.461   1.517
  903SOL    HW2 3642   3.194   2.404   1.535
  903SOL    HW3 3643   3.045   2.415   1.557
  903SOL    MW4 3644   3.119   2.447   1.525
  904SOL     OW 3645   3.127   2.706   1.660
  904SOL    HW2 3646   3.204   2.753   1.627
  904SOL    HW3 3647   3.127   2.623   1.612
  904SOL    MW4 3648   3.137   2.701   1.649
  905SOL     OW 3649   3.349   2.834   1.536
  905SOL    HW2 3650   3.338   2.925   1.562
  905SOL    HW3 3651   3.359   2.838   1.441
  905SOL    MW4 3652   3.349   2.847   1.527
  906SOL     OW 3653   3.345   3.098   1.615
  906SOL    HW2 3654   3.376   3.087   1.705
  906SOL    HW3 3655   3.420   3.132   1.567
  906SOL    MW4 3656   3.359   3.101   1.620
  907SOL     OW 3657   3.117   3.208   1.505
  907SOL    HW2 3658   3.196   3.165   1.536
  907SOL    HW3 3659   3.123   3.204   1.410
  907SOL    MW4 3660   3.128   3.202   1.497
  908SOL     OW 3661   3.154   3.470   1.606
  908SOL    HW2 3662   3.151   3.384   1.564
  908SOL    HW3 3663   3.081   3.519   1.567
  908SOL    MW4 3664   3.144   3.465   1.596
  909SOL     OW 3665   3.358   3.600   1.468
  909SOL    HW2 3666   3.429   3.555   1.513
  909SOL    HW3 3667   3.279   3.555   1.498
  909SOL    MW4 3668   3.357   3.588   1.478
  910SOL     OW 3669   3.367   3.843   1.633
  910SOL    HW2 3670   3.288   3.886   1.599
  910SOL    HW3 3671   3.366   3.756   1.594
  910SOL    MW4 3672   3.356   3.837   1.624
  911SOL     OW 3673   3.130   3.965   1.517
  911SOL    HW2 3674   3.136   4.057   1.544
  911SOL    HW3 3675   3.045   3.936   1.550
  911SOL    MW4 3676   3.120   3.973   1.525
  912SOL     OW 3677   3.153   4.231   1.597
  912SOL    HW2 3678   3.157   4.241   1.693
  912SOL    HW3 3679   3.095   4.302   1.569
  912SOL    MW4 3680   3.146   4.242   1.606
  913SOL     OW 3681   3.384   4.344   1.487
  913SOL    HW2 3682   3.302   4.301   1.514
  913SOL    HW3 3683   3.371   4.362   1.394
  913SOL    MW4 3684   3.371   4.340   1.478
  914SOL     OW 3685   3.800   4.623   1.593
  914SOL    HW2 3686   3.804   4.633   1.688
  914SOL    HW3 3687   3.880   4.664   1.562
  914SOL    MW4 3688   3.811   4.630   1.602
  915SOL     OW 3689   3.585   0.132   1.523
  915SOL    HW2 3690   3.653   0.069   1.548
  915SOL    HW3 3691   3.593   0.139   1.428
  915SOL    MW4 3692   3.595   0.125   1.514
  916SOL     OW 3693   3.589   0.386   1.638
  916SOL    HW2 3694   3.589   0.303   1.590
  916SOL    HW3 3695   3.512   0.433   1.605
  916SOL    MW4 3696   3.578   0.381   1.627
  917SOL     OW 3697   3.790   0.509   1.499
  917SOL    HW2 3698   3.712   0.467   1.533
  917SOL    HW3 3699   3.788   0.491   1.405
  917SOL    MW4 3700   3.779   0.501   1.491
  918SOL     OW 3701   3.806   0.754   1.609
  918SOL    HW2 3702   3.753   0.808   1.550
  918SOL    HW3 3703   3.796   0.665   1.575
  918SOL    MW4 3704   3.798   0.749   1.596
  919SOL     OW 3705   3.589   0.930   1.461
  919SOL    HW2 3706   3.517   0.878   1.497
  919SOL    HW3 3707   3.589   0.911   1.368
  919SOL    MW4 3708   3.580   0.921   1.454
  920SOL     OW 3709   3.613   1.163   1.594
  920SOL    HW2 3710   3.678   1.214   1.547
  920SOL    HW3 3711   3.615   1.077   1.552
  920SOL    MW4 3712   3.622   1.158   1.582
  921SOL     OW 3713   3.835   1.279   1.488
  921SOL    HW2 3714   3.902   1.225   1.530
  921SOL    HW3 3715   3.838   1.363   1.535
  921SOL    MW4 3716   3.845   1.283   1.499
  922SOL     OW 3717   3.818   1.534   1.594
  922SOL    HW2 3718   3.813   1.554   1.688
  922SOL    HW3 3719   3.741   1.576   1.556
  922SOL    MW4 3720   3.807   1.542   1.601
  923SOL     OW 3721   3.581   1.668   1.485
  923SOL    HW2 3722   3.494   1.634   1.503
  923SOL    HW3 3723   3.586   1.673   1.390
  923SOL    MW4 3724   3.570   1.664   1.475
  924SOL     OW 3725   3.619   1.910   1.617
  924SOL    HW2 3726   3.599   1.823   1.582
  924SOL    HW3 3727   3.543   1.963   1.593
  924SOL    MW4 3728   3.606   1.905   1.609
  925SOL     OW 3729   3.822   2.041   1.492
  925SOL    HW2 3730   3.828   2.129   1.528
  925SOL    HW3 3731   3.748   2.001   1.538
  925SOL    MW4 3732   3.813   2.047   1.503
  926SOL     OW 3733   3.816   2.312   1.568
  926SOL    HW2 3734   3.812   2.314   1.664
  926SOL    HW3 3735   3.902   2.349   1.547
  926SOL    MW4 3736   3.827   2.317   1.578
  927SOL     OW 3737   3.586   2.446   1.504
  927SOL    HW2 3738   3.590   2.527   1.554
  927SOL    HW3 3739   3.669   2.402   1.523
  927SOL    MW4 3740   3.598   2.451   1.513
  928SOL     OW 3741   3.570   2.679   1.621
  928SOL    HW2 3742   3.572   2.665   1.715
  928SOL    HW3 3743   3.488   2.726   1.605
  928SOL    MW4 3744   3.559   2.683   1.631
  929SOL     OW 3745   3.798   2.813   1.472
  929SOL    HW2 3746   3.869   2.768   1.518
  929SOL    HW3 3747   3.719   2.783   1.515
  929SOL    MW4 3748   3.797   2.803   1.484
  930SOL     OW 3749   3.789   3.088   1.568
  930SOL    HW2 3750   3.875   3.126   1.550
  930SOL    HW3 3751   3.800   2.995   1.552
  930SOL    MW4 3752   3.802   3.081   1.564
  931SOL     OW 3753   3.566   3.206   1.473
  931SOL    HW2 3754   3.646   3.161   1.500
  931SOL    HW3 3755   3.573   3.214   1.378
  931SOL    MW4 3756   3.578   3.201   1.464
  932SOL     OW 3757   3.587   3.467   1.594
  932SOL    HW2 3758   3.676   3.483   1.564
  932SOL    HW3 3759   3.571   3.375   1.573
  932SOL    MW4 3760   3.597   3.457   1.587
  933SOL     OW 3761   3.814   3.558   1.474
  933SOL    HW2 3762   3.891   3.532   1.525
  933SOL    HW3 3763   3.811   3.653   1.481
  933SOL    MW4 3764   3.824   3.567   1.482
  934SOL     OW 3765   3.819   3.822   1.553
  934SOL    HW2 3766   3.887   3.890   1.555
  934SOL    HW3 3767   3.740   3.868   1.525
  934SOL    MW4 3768   3.818   3.837   1.550
  935SOL     OW 3769   3.587   3.946   1.485
  935SOL    HW2 3770   3.604   4.036   1.514
  935SOL    HW3 3771   3.512   3.917   1.538
  935SOL    MW4 3772   3.579   3.954   1.496
  936SOL     OW 3773   3.639   4.200   1.583
  936SOL    HW2 3774   3.624   4.217   1.676
  936SOL    HW3 3775   3.560   4.233   1.539
  936SOL    MW4 3776   3.626   4.207   1.589
  937SOL     OW 3777   3.861   4.362   1.488
  937SOL    HW2 3778   3.780   4.316   1.512
  937SOL    HW3 3779   3.848   4.452   1.518
  937SOL    MW4 3780   3.849   4.368   1.495
  938SOL     OW 3781   4.301   4.638   1.548
  938SOL    HW2 3782   4.295   4.648   1.643
  938SOL    HW3 3783   4.321   4.545   1.534
  938SOL    MW4 3784   4.303   4.627   1.558
  939SOL     OW 3785   4.041   0.060   1.489
  939SOL    HW2 3786   4.039   0.151   1.517
  939SOL    HW3 3787   4.132   0.032   1.503
  939SOL    MW4 3788   4.053   0.068   1.495
  940SOL     OW 3789   4.034   0.334   1.591
  940SOL    HW2 3790   4.058   0.315   1.682
  940SOL    HW3 3791   3.944   0.365   1.597
  940SOL    MW4 3792   4.025   0.335   1.604
  941SOL     OW 3793   4.244   0.525   1.447
  941SOL    HW2 3794   4.172   0.466   1.467
  941SOL    HW3 3795   4.314   0.499   1.506
  941SOL    MW4 3796   4.244   0.514   1.458
  942SOL     OW 3797   4.281   0.767   1.600
  942SOL    HW2 3798   4.264   0.692   1.543
  942SOL    HW3 3799   4.340   0.823   1.550
  942SOL    MW4 3800   4.287   0.765   1.586
  943SOL     OW 3801   4.053   0.889   1.504
  943SOL    HW2 3802   4.130   0.859   1.551
  943SOL    HW3 3803   3.980   0.840   1.543
  943SOL    MW4 3804   4.053   0.878   1.515
  944SOL     OW 3805   4.084   1.144   1.580
  944SOL    HW2 3806   4.091   1.147   1.676
  944SOL    HW3 3807   4.057   1.054   1.561
  944SOL    MW4 3808   4.081   1.132   1.590
  945SOL     OW 3809   4.281   1.311   1.476
  945SOL    HW2 3810   4.213   1.253   1.511
  945SOL    HW3 3811   4.361   1.286   1.524
  945SOL    MW4 3812   4.283   1.300   1.487
  946SOL     OW 3813   4.269   1.543   1.602
  946SOL    HW2 3814   4.261   1.467   1.545
  946SOL    HW3 3815   4.357   1.578   1.585
  946SOL    MW4 3816   4.280   1.538   1.592
  947SOL     OW 3817   4.046   1.634   1.471
  947SOL    HW2 3818   4.123   1.589   1.507
  947SOL    HW3 3819   3.973   1.600   1.522
  947SOL    MW4 3820   4.047   1.624   1.483
  948SOL     OW 3821   4.023   1.880   1.603
  948SOL    HW2 3822   4.027   1.794   1.561
  948SOL    HW3 3823   3.955   1.927   1.554
  948SOL    MW4 3824   4.014   1.875   1.591
  949SOL     OW 3825   4.243   2.032   1.500
  949SOL    HW2 3826   4.169   1.983   1.534
  949SOL    HW3 3827   4.225   2.042   1.407
  949SOL    MW4 3828   4.231   2.027   1.492
  950SOL     OW 3829   4.275   2.289   1.601
  950SOL    HW2 3830   4.279   2.303   1.696
  950SOL    HW3 3831   4.273   2.194   1.591
  950SOL    MW4 3832   4.275   2.278   1.612
  951SOL     OW 3833   4.052   2.434   1.501
  951SOL    HW2 3834   4.041   2.524   1.532
  951SOL    HW3 3835   4.122   2.399   1.556
  951SOL    MW4 3836   4.060   2.442   1.513
  952SOL     OW 3837   4.021   2.689   1.606
  952SOL    HW2 3838   4.025   2.682   1.701
  952SOL    HW3 3839   4.096   2.745   1.583
  952SOL    MW4 3840   4.032   2.696   1.615
  953SOL     OW 3841   4.253   2.825   1.517
  953SOL    HW2 3842   4.266   2.919   1.520
  953SOL    HW3 3843   4.280   2.800   1.429
  953SOL    MW4 3844   4.258   2.834   1.506
  954SOL     OW 3845   4.252   3.097   1.558
  954SOL    HW2 3846   4.261   3.089   1.653
  954SOL    HW3 3847   4.334   3.136   1.529
  954SOL    MW4 3848   4.264   3.101   1.567
  955SOL     OW 3849   4.011   3.223   1.499
  955SOL    HW2 3850   4.026   3.311   1.532
  955SOL    HW3 3851   4.089   3.174   1.524
  955SOL    MW4 3852   4.023   3.228   1.506
  956SOL     OW 3853   4.047   3.497   1.605
  956SOL    HW2 3854   4.063   3.488   1.699
  956SOL    HW3 3855   4.124   3.545   1.572
  956SOL    MW4 3856   4.059   3.502   1.613
  957SOL     OW 3857   4.297   3.624   1.518
  957SOL    HW2 3858   4.286   3.715   1.547
  957SOL    HW3 3859   4.260   3.624   1.430
  957SOL    MW4 3860   4.291   3.636   1.510
  958SOL     OW 3861   4.279   3.860   1.647
  958SOL    HW2 3862   4.202   3.881   1.594
  958SOL    HW3 3863   4.349   3.915   1.612
  958SOL    MW4 3864   4.278   3.870   1.635
  959SOL     OW 3865   4.075   3.936   1.466
  959SOL    HW2 3866   4.071   4.029   1.490
  959SOL    HW3 3867   4.076   3.935   1.371
  959SOL    MW4 3868   4.075   3.948   1.457
  960SOL     OW 3869   4.076   4.203   1.588
  960SOL    HW2 3870   4.083   4.204   1.684
  960SOL    HW3 3871   4.008   4.267   1.569
  960SOL    MW4 3872   4.068   4.212   1.598
  961SOL     OW 3873   4.311   4.349   1.499
  961SOL    HW2 3874   4.233   4.298   1.520
  961SOL    HW3 3875   4.312   4.351   1.403
  961SOL    MW4 3876   4.301   4.343   1.489
  962SOL     OW 3877   0.239   4.587   1.844
  962SOL    HW2 3878   0.304   4.648   1.879
  962SOL    HW3 3879   0.259   4.582   1.750
  962SOL    MW4 3880   0.250   4.594   1.836
  963SOL     OW 3881   0.024   0.092   1.927
  963SOL    HW2 3882   0.039   0.186   1.917
  963SOL    HW3 3883   0.102   0.051   1.889
  963SOL    MW4 3884   0.036   0.099   1.921
  964SOL     OW 3885   0.036   0.364   1.857
  964SOL    HW2 3886  -0.042   0.415   1.879
  964SOL    HW3 3887   0.109   0.420   1.883
  964SOL    MW4 3888   0.036   0.378   1.864
  965SOL     OW 3889   0.242   0.534   1.943
  965SOL    HW2 3890   0.323   0.492   1.916
  965SOL    HW3 3891   0.249   0.624   1.911
  965SOL    MW4 3892   0.253   0.540   1.935
  966SOL     OW 3893   0.232   0.804   1.860
  966SOL    HW2 3894   0.306   0.858   1.886
  966SOL    HW3 3895   0.234   0.805   1.764
  966SOL    MW4 3896   0.242   0.811   1.851
  967SOL     OW 3897   4.481   0.898   1.985
  967SOL    HW2 3898   4.422   0.830   1.953
  967SOL    HW3 3899   4.566   0.876   1.946
  967SOL    MW4 3900   4.485   0.886   1.975
  968SOL     OW 3901   4.468   1.172   1.883
  968SOL    HW2 3902   4.388   1.216   1.911
  968SOL    HW3 3903   4.469   1.089   1.932
  968SOL    MW4 3904   4.457   1.167   1.893
  969SOL     OW 3905   0.244   1.260   1.978
  969SOL    HW2 3906   0.248   1.354   1.962
  969SOL    HW3 3907   0.158   1.234   1.947
  969SOL    MW4 3908   0.233   1.269   1.971
  970SOL     OW 3909   0.235   1.514   1.897
  970SOL    HW2 3910   0.297   1.572   1.941
  970SOL    HW3 3911   0.149   1.551   1.918
  970SOL    MW4 3912   0.232   1.526   1.905
  971SOL     OW 3913   0.001   1.666   1.963
  971SOL    HW2 3914   0.003   1.668   2.059
  971SOL    HW3 3915  -0.091   1.646   1.942
  971SOL    MW4 3916  -0.011   1.663   1.973
  972SOL     OW 3917   0.039   1.933   1.868
  972SOL    HW2 3918  -0.047   1.963   1.901
  972SOL    HW3 3919   0.042   1.840   1.891
  972SOL    MW4 3920   0.028   1.925   1.876
  973SOL     OW 3921   0.210   2.068   2.030
  973SOL    HW2 3922   0.221   2.154   1.990
  973SOL    HW3 3923   0.133   2.031   1.986
  973SOL    MW4 3924   0.201   2.074   2.019
  974SOL     OW 3925   0.225   2.300   1.849
  974SOL    HW2 3926   0.297   2.361   1.869
  974SOL    HW3 3927   0.146   2.348   1.875
  974SOL    MW4 3928   0.224   2.315   1.855
  975SOL     OW 3929   4.487   2.429   1.950
  975SOL    HW2 3930   4.495   2.419   2.045
  975SOL    HW3 3931   4.496   2.523   1.935
  975SOL    MW4 3932   4.489   2.440   1.961
  976SOL     OW 3933   4.487   2.687   1.888
  976SOL    HW2 3934   4.414   2.738   1.923
  976SOL    HW3 3935   4.487   2.705   1.794
  976SOL    MW4 3936   4.478   2.696   1.880
  977SOL     OW 3937   0.221   2.829   1.996
  977SOL    HW2 3938   0.225   2.915   1.953
  977SOL    HW3 3939   0.146   2.785   1.954
  977SOL    MW4 3940   0.211   2.835   1.985
  978SOL     OW 3941   0.226   3.081   1.867
  978SOL    HW2 3942   0.308   3.124   1.891
  978SOL    HW3 3943   0.219   3.092   1.772
  978SOL    MW4 3944   0.236   3.088   1.857
  979SOL     OW 3945   0.005   3.198   1.984
  979SOL    HW2 3946  -0.072   3.166   1.936
  979SOL    HW3 3947   0.075   3.137   1.962
  979SOL    MW4 3948   0.004   3.186   1.975
  980SOL     OW 3949   0.011   3.460   1.847
  980SOL    HW2 3950   0.093   3.499   1.878
  980SOL    HW3 3951   0.015   3.369   1.877
  980SOL    MW4 3952   0.023   3.453   1.855
  981SOL     OW 3953   0.251   3.572   1.968
  981SOL    HW2 3954   0.248   3.585   2.063
  981SOL    HW3 3955   0.325   3.512   1.955
  981SOL    MW4 3956   0.261   3.566   1.979
  982SOL     OW 3957   0.235   3.836   1.861
  982SOL    HW2 3958   0.297   3.894   1.906
  982SOL    HW3 3959   0.245   3.751   1.905
  982SOL    MW4 3960   0.245   3.833   1.873
  983SOL     OW 3961   0.022   3.975   1.990
  983SOL    HW2 3962   0.002   4.054   1.941
  983SOL    HW3 3963   0.101   3.940   1.950
  983SOL    MW4 3964   0.030   3.981   1.979
  984SOL     OW 3965   4.490   4.229   1.862
  984SOL    HW2 3966   4.416   4.286   1.884
  984SOL    HW3 3967   4.564   4.265   1.912
  984SOL    MW4 3968   4.490   4.241   1.872
  985SOL     OW 3969   0.226   4.346   1.978
  985SOL    HW2 3970   0.208   4.374   2.067
  985SOL    HW3 3971   0.231   4.427   1.927
  985SOL    MW4 3972   0.224   4.360   1.983
  986SOL     OW 3973   0.657   0.002   1.916
  986SOL    HW2 3974   0.662  -0.091   1.938
  986SOL    HW3 3975   0.657   0.004   1.820
  986SOL    MW4 3976   0.658  -0.010   1.906
  987SOL     OW 3977   0.396   0.096   1.953
  987SOL    HW2 3978   0.403   0.188   1.928
  987SOL    HW3 3979   0.480   0.058   1.929
  987SOL    MW4 3980   0.408   0.103   1.947
  988SOL     OW 3981   0.445   0.350   1.859
  988SOL    HW2 3982   0.521   0.393   1.897
  988SOL    HW3 3983   0.442   0.382   1.769
  988SOL    MW4 3984   0.454   0.360   1.852
  989SOL     OW 3985   0.688   0.480   1.938
  989SOL    HW2 3986   0.712   0.488   2.030
  989SOL    HW3 3987   0.768   0.447   1.895
  989SOL    MW4 3988   0.702   0.477   1.944
  990SOL     OW 3989   0.679   0.741   1.842
  990SOL    HW2 3990   0.762   0.779   1.871
  990SOL    HW3 3991   0.676   0.655   1.885
  990SOL    MW4 3992   0.689   0.735   1.852
  991SOL     OW 3993   0.460   0.918   1.931
  991SOL    HW2 3994   0.474   1.013   1.927
  991SOL    HW3 3995   0.544   0.880   1.907
  991SOL    MW4 3996   0.473   0.926   1.927
  992SOL     OW 3997   0.498   1.196   1.888
  992SOL    HW2 3998   0.409   1.222   1.913
  992SOL    HW3 3999   0.491   1.171   1.796
  992SOL    MW4 4000   0.485   1.196   1.879
  993SOL     OW 4001   0.749   1.291   1.972
  993SOL    HW2 4002   0.757   1.299   2.067
  993SOL    HW3 4003   0.664   1.249   1.958
  993SOL    MW4 4004   0.739   1.286   1.983
  994SOL     OW 4005   0.695   1.562   1.870
  994SOL    HW2 4006   0.680   1.469   1.885
  994SOL    HW3 4007   0.682   1.574   1.776
  994SOL    MW4 4008   0.691   1.551   1.860
  995SOL     OW 4009   0.436   1.653   1.989
  995SOL    HW2 4010   0.449   1.630   2.081
  995SOL    HW3 4011   0.520   1.636   1.948
  995SOL    MW4 4012   0.448   1.647   1.996
  996SOL     OW 4013   0.404   1.922   1.907
  996SOL    HW2 4014   0.410   1.832   1.940
  996SOL    HW3 4015   0.332   1.961   1.957
  996SOL    MW4 4016   0.395   1.915   1.918
  997SOL     OW 4017   0.639   2.080   1.950
  997SOL    HW2 4018   0.649   2.082   2.045
  997SOL    HW3 4019   0.574   2.011   1.934
  997SOL    MW4 4020   0.632   2.071   1.961
  998SOL     OW 4021   0.656   2.343   1.873
  998SOL    HW2 4022   0.648   2.251   1.899
  998SOL    HW3 4023   0.665   2.340   1.778
  998SOL    MW4 4024   0.656   2.330   1.864
  999SOL     OW 4025   0.418   2.453   1.966
  999SOL    HW2 4026   0.419   2.465   2.061
  999SOL    HW3 4027   0.498   2.403   1.948
  999SOL    MW4 4028   0.429   2.448   1.976
 1000SOL     OW 4029   0.466   2.709   1.894
 1000SOL    HW2 4030   0.450   2.618   1.921
 1000SOL    HW3 4031   0.382   2.753   1.908
 1000SOL    MW4 4032   0.453   2.703   1.900
 1001SOL     OW 4033   0.713   2.801   1.961
 1001SOL    HW2 4034   0.710   2.819   2.054
 1001SOL    HW3 4035   0.630   2.756   1.942
 1001SOL    MW4 4036   0.702   2.797   1.971
 1002SOL     OW 4037   0.680   3.058   1.877
 1002SOL    HW2 4038   0.686   2.965   1.899
 1002SOL    HW3 4039   0.663   3.058   1.782
 1002SOL    MW4 4040   0.679   3.046   1.867
 1003SOL     OW 4041   0.462   3.190   1.998
 1003SOL    HW2 4042   0.464   3.278   1.961
 1003SOL    HW3 4043   0.547   3.153   1.977
 1003SOL    MW4 4044   0.473   3.197   1.990
 1004SOL     OW 4045   0.473   3.444   1.888
 1004SOL    HW2 4046   0.531   3.512   1.922
 1004SOL    HW3 4047   0.478   3.452   1.793
 1004SOL    MW4 4048   0.482   3.454   1.880
 1005SOL     OW 4049   0.659   3.631   2.001
 1005SOL    HW2 4050   0.741   3.593   1.968
 1005SOL    HW3 4051   0.662   3.723   1.973
 1005SOL    MW4 4052   0.670   3.638   1.993
 1006SOL     OW 4053   0.630   3.898   1.870
 1006SOL    HW2 4054   0.703   3.944   1.911
 1006SOL    HW3 4055   0.652   3.897   1.777
 1006SOL    MW4 4056   0.643   3.904   1.863
 1007SOL     OW 4057   0.406   4.005   1.983
 1007SOL    HW2 4058   0.412   4.095   1.951
 1007SOL    HW3 4059   0.488   3.965   1.956
 1007SOL    MW4 4060   0.418   4.012   1.975
 1008SOL     OW 4061   0.466   4.252   1.859
 1008SOL    HW2 4062   0.380   4.286   1.886
 1008SOL    HW3 4063   0.464   4.255   1.763
 1008SOL    MW4 4064   0.454   4.257   1.850
 1009SOL     OW 4065   0.680   4.403   1.951
 1009SOL    HW2 4066   0.764   4.365   1.923
 1009SOL    HW3 4067   0.616   4.334   1.936
 1009SOL    MW4 4068   0.683   4.389   1.946
 1010SOL     OW 4069   1.097   4.650   1.909
 1010SOL    HW2 4070   1.181   4.681   1.944
 1010SOL    HW3 4071   1.093   4.559   1.935
 1010SOL    MW4 4072   1.108   4.642   1.917
 1011SOL     OW 4073   0.898   0.154   1.988
 1011SOL    HW2 4074   0.979   0.104   1.975
 1011SOL    HW3 4075   0.830   0.097   1.952
 1011SOL    MW4 4076   0.900   0.140   1.981
 1012SOL     OW 4077   0.909   0.379   1.832
 1012SOL    HW2 4078   0.972   0.436   1.876
 1012SOL    HW3 4079   0.913   0.297   1.881
 1012SOL    MW4 4080   0.917   0.375   1.844
 1013SOL     OW 4081   1.125   0.483   1.970
 1013SOL    HW2 4082   1.208   0.438   1.951
 1013SOL    HW3 4083   1.139   0.573   1.940
 1013SOL    MW4 4084   1.138   0.489   1.964
 1014SOL     OW 4085   1.143   0.737   1.873
 1014SOL    HW2 4086   1.223   0.786   1.892
 1014SOL    HW3 4087   1.072   0.791   1.907
 1014SOL    MW4 4088   1.144   0.750   1.880
 1015SOL     OW 4089   0.905   0.875   1.901
 1015SOL    HW2 4090   0.900   0.871   1.997
 1015SOL    HW3 4091   0.935   0.964   1.883
 1015SOL    MW4 4092   0.908   0.886   1.912
 1016SOL     OW 4093   0.960   1.139   1.873
 1016SOL    HW2 4094   0.881   1.183   1.904
 1016SOL    HW3 4095   0.962   1.158   1.779
 1016SOL    MW4 4096   0.950   1.148   1.865
 1017SOL     OW 4097   1.175   1.316   1.975
 1017SOL    HW2 4098   1.166   1.391   1.916
 1017SOL    HW3 4099   1.099   1.261   1.954
 1017SOL    MW4 4100   1.164   1.319   1.964
 1018SOL     OW 4101   1.116   1.586   1.851
 1018SOL    HW2 4102   1.036   1.633   1.874
 1018SOL    HW3 4103   1.123   1.593   1.756
 1018SOL    MW4 4104   1.107   1.593   1.842
 1019SOL     OW 4105   0.899   1.715   1.940
 1019SOL    HW2 4106   0.878   1.801   1.903
 1019SOL    HW3 4107   0.822   1.662   1.922
 1019SOL    MW4 4108   0.886   1.719   1.933
 1020SOL     OW 4109   0.874   1.978   1.882
 1020SOL    HW2 4110   0.791   2.015   1.912
 1020SOL    HW3 4111   0.875   1.995   1.787
 1020SOL    MW4 4112   0.863   1.985   1.873
 1021SOL     OW 4113   1.135   2.059   1.993
 1021SOL    HW2 4114   1.125   2.142   1.946
 1021SOL    HW3 4115   1.051   2.015   1.981
 1021SOL    MW4 4116   1.123   2.064   1.985
 1022SOL     OW 4117   1.124   2.287   1.843
 1022SOL    HW2 4118   1.196   2.338   1.882
 1022SOL    HW3 4119   1.141   2.290   1.749
 1022SOL    MW4 4120   1.136   2.294   1.836
 1023SOL     OW 4121   0.914   2.387   2.020
 1023SOL    HW2 4122   0.957   2.335   1.953
 1023SOL    HW3 4123   0.821   2.383   1.997
 1023SOL    MW4 4124   0.907   2.380   2.008
 1024SOL     OW 4125   0.919   2.631   1.887
 1024SOL    HW2 4126   0.924   2.546   1.931
 1024SOL    HW3 4127   0.834   2.666   1.914
 1024SOL    MW4 4128   0.908   2.624   1.896
 1025SOL     OW 4129   1.124   2.804   1.968
 1025SOL    HW2 4130   1.123   2.807   2.064
 1025SOL    HW3 4131   1.056   2.741   1.946
 1025SOL    MW4 4132   1.115   2.796   1.978
 1026SOL     OW 4133   1.100   3.066   1.870
 1026SOL    HW2 4134   1.015   3.099   1.899
 1026SOL    HW3 4135   1.097   2.972   1.892
 1026SOL    MW4 4136   1.088   3.058   1.877
 1027SOL     OW 4137   0.889   3.210   1.971
 1027SOL    HW2 4138   0.901   3.203   2.066
 1027SOL    HW3 4139   0.825   3.141   1.950
 1027SOL    MW4 4140   0.882   3.200   1.981
 1028SOL     OW 4141   0.874   3.481   1.918
 1028SOL    HW2 4142   0.881   3.390   1.946
 1028SOL    HW3 4143   0.873   3.477   1.823
 1028SOL    MW4 4144   0.875   3.468   1.909
 1029SOL     OW 4145   1.117   3.605   1.961
 1029SOL    HW2 4146   1.126   3.604   2.056
 1029SOL    HW3 4147   1.034   3.560   1.945
 1029SOL    MW4 4148   1.107   3.599   1.971
 1030SOL     OW 4149   1.069   3.869   1.903
 1030SOL    HW2 4150   1.101   3.781   1.923
 1030SOL    HW3 4151   1.073   3.875   1.808
 1030SOL    MW4 4152   1.073   3.858   1.893
 1031SOL     OW 4153   0.833   3.995   2.001
 1031SOL    HW2 4154   0.858   4.012   2.092
 1031SOL    HW3 4155   0.903   3.940   1.966
 1031SOL    MW4 4156   0.845   3.990   2.009
 1032SOL     OW 4157   0.894   4.233   1.874
 1032SOL    HW2 4158   0.973   4.263   1.918
 1032SOL    HW3 4159   0.867   4.155   1.923
 1032SOL    MW4 4160   0.901   4.227   1.886
 1033SOL     OW 4161   1.106   4.384   1.982
 1033SOL    HW2 4162   1.125   4.367   2.074
 1033SOL    HW3 4163   1.187   4.362   1.936
 1033SOL    MW4 4164   1.119   4.379   1.988
 1034SOL     OW 4165   1.573   4.656   1.888
 1034SOL    HW2 4166   1.643   4.712   1.922
 1034SOL    HW3 4167   1.576   4.578   1.943
 1034SOL    MW4 4168   1.582   4.654   1.900
 1035SOL     OW 4169   1.332   0.083   1.999
 1035SOL    HW2 4170   1.364   0.102   2.088
 1035SOL    HW3 4171   1.409   0.049   1.953
 1035SOL    MW4 4172   1.346   0.081   2.005
 1036SOL     OW 4173   1.359   0.343   1.921
 1036SOL    HW2 4174   1.342   0.252   1.945
 1036SOL    HW3 4175   1.382   0.340   1.828
 1036SOL    MW4 4176   1.360   0.331   1.912
 1037SOL     OW 4177   1.594   0.505   1.974
 1037SOL    HW2 4178   1.660   0.449   1.934
 1037SOL    HW3 4179   1.514   0.453   1.973
 1037SOL    MW4 4180   1.592   0.491   1.968
 1038SOL     OW 4181   1.587   0.739   1.826
 1038SOL    HW2 4182   1.649   0.800   1.867
 1038SOL    HW3 4183   1.598   0.658   1.876
 1038SOL    MW4 4184   1.597   0.737   1.838
 1039SOL     OW 4185   1.376   0.886   1.937
 1039SOL    HW2 4186   1.374   0.872   2.031
 1039SOL    HW3 4187   1.456   0.843   1.907
 1039SOL    MW4 4188   1.386   0.878   1.945
 1040SOL     OW 4189   1.370   1.168   1.838
 1040SOL    HW2 4190   1.359   1.082   1.879
 1040SOL    HW3 4191   1.308   1.225   1.884
 1040SOL    MW4 4192   1.360   1.164   1.849
 1041SOL     OW 4193   1.585   1.295   1.949
 1041SOL    HW2 4194   1.575   1.388   1.928
 1041SOL    HW3 4195   1.508   1.253   1.911
 1041SOL    MW4 4196   1.574   1.302   1.941
 1042SOL     OW 4197   1.568   1.544   1.848
 1042SOL    HW2 4198   1.642   1.588   1.890
 1042SOL    HW3 4199   1.491   1.591   1.880
 1042SOL    MW4 4200   1.568   1.556   1.858
 1043SOL     OW 4201   1.350   1.665   1.972
 1043SOL    HW2 4202   1.320   1.663   2.063
 1043SOL    HW3 4203   1.274   1.638   1.920
 1043SOL    MW4 4204   1.336   1.661   1.977
 1044SOL     OW 4205   1.345   1.922   1.855
 1044SOL    HW2 4206   1.344   1.851   1.919
 1044SOL    HW3 4207   1.271   1.977   1.880
 1044SOL    MW4 4208   1.335   1.920   1.867
 1045SOL     OW 4209   1.540   2.068   1.989
 1045SOL    HW2 4210   1.556   2.147   1.937
 1045SOL    HW3 4211   1.473   2.020   1.941
 1045SOL    MW4 4212   1.534   2.072   1.976
 1046SOL     OW 4213   1.575   2.306   1.850
 1046SOL    HW2 4214   1.648   2.356   1.885
 1046SOL    HW3 4215   1.577   2.323   1.756
 1046SOL    MW4 4216   1.585   2.315   1.842
 1047SOL     OW 4217   1.357   2.439   1.945
 1047SOL    HW2 4218   1.375   2.533   1.946
 1047SOL    HW3 4219   1.442   2.398   1.928
 1047SOL    MW4 4220   1.370   2.446   1.943
 1048SOL     OW 4221   1.356   2.699   1.887
 1048SOL    HW2 4222   1.278   2.747   1.916
 1048SOL    HW3 4223   1.347   2.694   1.792
 1048SOL    MW4 4224   1.344   2.705   1.878
 1049SOL     OW 4225   1.555   2.864   1.961
 1049SOL    HW2 4226   1.629   2.829   1.913
 1049SOL    HW3 4227   1.483   2.803   1.944
 1049SOL    MW4 4228   1.555   2.852   1.953
 1050SOL     OW 4229   1.549   3.122   1.877
 1050SOL    HW2 4230   1.558   3.031   1.905
 1050SOL    HW3 4231   1.555   3.118   1.781
 1050SOL    MW4 4232   1.551   3.110   1.868
 1051SOL     OW 4233   1.319   3.241   1.955
 1051SOL    HW2 4234   1.396   3.191   1.929
 1051SOL    HW3 4235   1.245   3.185   1.932
 1051SOL    MW4 4236   1.320   3.227   1.949
 1052SOL     OW 4237   1.306   3.471   1.829
 1052SOL    HW2 4238   1.303   3.389   1.878
 1052SOL    HW3 4239   1.241   3.527   1.873
 1052SOL    MW4 4240   1.297   3.468   1.841
 1053SOL     OW 4241   1.538   3.617   1.920
 1053SOL    HW2 4242   1.538   3.621   2.016
 1053SOL    HW3 4243   1.456   3.574   1.898
 1053SOL    MW4 4244   1.528   3.612   1.930
 1054SOL     OW 4245   1.524   3.913   1.905
 1054SOL    HW2 4246   1.615   3.936   1.923
 1054SOL    HW3 4247   1.521   3.818   1.917
 1054SOL    MW4 4248   1.536   3.903   1.909
 1055SOL     OW 4249   1.298   4.051   1.961
 1055SOL    HW2 4250   1.371   3.995   1.935
 1055SOL    HW3 4251   1.223   3.993   1.965
 1055SOL    MW4 4252   1.298   4.036   1.958
 1056SOL     OW 4253   1.340   4.301   1.831
 1056SOL    HW2 4254   1.340   4.212   1.866
 1056SOL    HW3 4255   1.356   4.289   1.737
 1056SOL    MW4 4256   1.342   4.287   1.823
 1057SOL     OW 4257   1.573   4.377   1.950
 1057SOL    HW2 4258   1.560   4.368   2.044
 1057SOL    HW3 4259   1.488   4.356   1.912
 1057SOL    MW4 4260   1.560   4.373   1.957
 1058SOL     OW 4261   2.014   0.021   1.854
 1058SOL    HW2 4262   2.094   0.060   1.889
 1058SOL    HW3 4263   2.017  -0.070   1.885
 1058SOL    MW4 4264   2.025   0.014   1.863
 1059SOL     OW 4265   1.785   0.142   1.949
 1059SOL    HW2 4266   1.810   0.127   2.040
 1059SOL    HW3 4267   1.862   0.116   1.898
 1059SOL    MW4 4268   1.798   0.137   1.955
 1060SOL     OW 4269   1.818   0.396   1.854
 1060SOL    HW2 4270   1.807   0.310   1.894
 1060SOL    HW3 4271   1.818   0.379   1.760
 1060SOL    MW4 4272   1.817   0.383   1.847
 1061SOL     OW 4273   2.011   0.529   2.024
 1061SOL    HW2 4274   2.038   0.601   1.966
 1061SOL    HW3 4275   1.942   0.483   1.976
 1061SOL    MW4 4276   2.006   0.532   2.010
 1062SOL     OW 4277   2.063   0.737   1.848
 1062SOL    HW2 4278   2.142   0.790   1.860
 1062SOL    HW3 4279   2.055   0.728   1.753
 1062SOL    MW4 4280   2.072   0.743   1.837
 1063SOL     OW 4281   1.825   0.859   1.959
 1063SOL    HW2 4282   1.818   0.952   1.939
 1063SOL    HW3 4283   1.912   0.834   1.927
 1063SOL    MW4 4284   1.836   0.868   1.952
 1064SOL     OW 4285   1.805   1.133   1.870
 1064SOL    HW2 4286   1.730   1.185   1.896
 1064SOL    HW3 4287   1.812   1.145   1.775
 1064SOL    MW4 4288   1.796   1.141   1.861
 1065SOL     OW 4289   2.024   1.283   1.986
 1065SOL    HW2 4290   2.100   1.235   1.953
 1065SOL    HW3 4291   1.950   1.242   1.941
 1065SOL    MW4 4292   2.024   1.271   1.975
 1066SOL     OW 4293   2.018   1.551   1.868
 1066SOL    HW2 4294   2.012   1.464   1.908
 1066SOL    HW3 4295   1.997   1.536   1.776
 1066SOL    MW4 4296   2.014   1.537   1.861
 1067SOL     OW 4297   1.783   1.663   1.971
 1067SOL    HW2 4298   1.783   1.755   1.946
 1067SOL    HW3 4299   1.859   1.626   1.927
 1067SOL    MW4 4300   1.793   1.670   1.962
 1068SOL     OW 4301   1.778   1.941   1.890
 1068SOL    HW2 4302   1.700   1.980   1.929
 1068SOL    HW3 4303   1.768   1.956   1.796
 1068SOL    MW4 4304   1.767   1.948   1.883
 1069SOL     OW 4305   2.024   2.057   1.968
 1069SOL    HW2 4306   2.088   1.994   1.935
 1069SOL    HW3 4307   1.939   2.017   1.950
 1069SOL    MW4 4308   2.021   2.043   1.961
 1070SOL     OW 4309   2.022   2.319   1.892
 1070SOL    HW2 4310   2.099   2.357   1.936
 1070SOL    HW3 4311   2.021   2.228   1.921
 1070SOL    MW4 4312   2.032   2.312   1.902
 1071SOL     OW 4313   1.786   2.469   1.950
 1071SOL    HW2 4314   1.772   2.468   2.045
 1071SOL    HW3 4315   1.856   2.406   1.936
 1071SOL    MW4 4316   1.793   2.460   1.961
 1072SOL     OW 4317   1.769   2.741   1.850
 1072SOL    HW2 4318   1.791   2.652   1.879
 1072SOL    HW3 4319   1.806   2.746   1.762
 1072SOL    MW4 4320   1.777   2.730   1.842
 1073SOL     OW 4321   1.991   2.874   1.947
 1073SOL    HW2 4322   2.007   2.875   2.041
 1073SOL    HW3 4323   1.904   2.837   1.937
 1073SOL    MW4 4324   1.982   2.869   1.958
 1074SOL     OW 4325   2.009   3.116   1.827
 1074SOL    HW2 4326   1.940   3.168   1.868
 1074SOL    HW3 4327   1.992   3.026   1.854
 1074SOL    MW4 4328   1.998   3.111   1.836
 1075SOL     OW 4329   1.801   3.257   1.954
 1075SOL    HW2 4330   1.807   3.266   2.049
 1075SOL    HW3 4331   1.717   3.213   1.940
 1075SOL    MW4 4332   1.790   3.253   1.965
 1076SOL     OW 4333   1.792   3.527   1.876
 1076SOL    HW2 4334   1.770   3.437   1.902
 1076SOL    HW3 4335   1.711   3.576   1.886
 1076SOL    MW4 4336   1.778   3.521   1.881
 1077SOL     OW 4337   2.061   3.609   1.983
 1077SOL    HW2 4338   2.050   3.695   1.942
 1077SOL    HW3 4339   1.988   3.558   1.948
 1077SOL    MW4 4340   2.050   3.614   1.973
 1078SOL     OW 4341   2.036   3.839   1.846
 1078SOL    HW2 4342   2.106   3.900   1.871
 1078SOL    HW3 4343   2.024   3.855   1.752
 1078SOL    MW4 4344   2.044   3.849   1.837
 1079SOL     OW 4345   1.782   3.989   1.948
 1079SOL    HW2 4346   1.793   4.075   1.906
 1079SOL    HW3 4347   1.862   3.942   1.926
 1079SOL    MW4 4348   1.794   3.994   1.939
 1080SOL     OW 4349   1.796   4.260   1.841
 1080SOL    HW2 4350   1.716   4.308   1.866
 1080SOL    HW3 4351   1.801   4.273   1.746
 1080SOL    MW4 4352   1.786   4.268   1.832
 1081SOL     OW 4353   2.022   4.424   1.945
 1081SOL    HW2 4354   2.077   4.347   1.928
 1081SOL    HW3 4355   1.934   4.397   1.920
 1081SOL    MW4 4356   2.018   4.410   1.940
 1082SOL     OW 4357   2.466   4.642   1.838
 1082SOL    HW2 4358   2.557   4.664   1.858
 1082SOL    HW3 4359   2.446   4.567   1.895
 1082SOL    MW4 4360   2.475   4.635   1.848
 1083SOL     OW 4361   2.257   0.124   1.951
 1083SOL    HW2 4362   2.262   0.105   2.044
 1083SOL    HW3 4363   2.331   0.076   1.912
 1083SOL    MW4 4364   2.268   0.115   1.958
 1084SOL     OW 4365   2.214   0.386   1.878
 1084SOL    HW2 4366   2.219   0.295   1.908
 1084SOL    HW3 4367   2.152   0.427   1.938
 1084SOL    MW4 4368   2.207   0.379   1.890
 1085SOL     OW 4369   2.466   0.497   1.975
 1085SOL    HW2 4370   2.530   0.437   1.936
 1085SOL    HW3 4371   2.381   0.462   1.948
 1085SOL    MW4 4372   2.463   0.484   1.966
 1086SOL     OW 4373   2.515   0.764   1.891
 1086SOL    HW2 4374   2.504   0.678   1.933
 1086SOL    HW3 4375   2.499   0.747   1.798
 1086SOL    MW4 4376   2.511   0.750   1.884
 1087SOL     OW 4377   2.297   0.906   1.948
 1087SOL    HW2 4378   2.271   0.876   2.035
 1087SOL    HW3 4379   2.375   0.855   1.926
 1087SOL    MW4 4380   2.304   0.895   1.957
 1088SOL     OW 4381   2.244   1.176   1.868
 1088SOL    HW2 4382   2.320   1.215   1.912
 1088SOL    HW3 4383   2.247   1.084   1.892
 1088SOL    MW4 4384   2.254   1.169   1.877
 1089SOL     OW 4385   2.484   1.253   1.984
 1089SOL    HW2 4386   2.480   1.249   2.079
 1089SOL    HW3 4387   2.481   1.346   1.963
 1089SOL    MW4 4388   2.483   1.265   1.994
 1090SOL     OW 4389   2.461   1.511   1.903
 1090SOL    HW2 4390   2.400   1.577   1.936
 1090SOL    HW3 4391   2.445   1.509   1.808
 1090SOL    MW4 4392   2.451   1.520   1.895
 1091SOL     OW 4393   2.252   1.676   1.977
 1091SOL    HW2 4394   2.263   1.663   2.072
 1091SOL    HW3 4395   2.172   1.628   1.955
 1091SOL    MW4 4396   2.243   1.668   1.987
 1092SOL     OW 4397   2.239   1.925   1.865
 1092SOL    HW2 4398   2.312   1.981   1.893
 1092SOL    HW3 4399   2.262   1.838   1.897
 1092SOL    MW4 4400   2.252   1.921   1.873
 1093SOL     OW 4401   2.470   2.082   1.952
 1093SOL    HW2 4402   2.537   2.028   1.911
 1093SOL    HW3 4403   2.487   2.170   1.920
 1093SOL    MW4 4404   2.481   2.086   1.943
 1094SOL     OW 4405   2.481   2.338   1.857
 1094SOL    HW2 4406   2.556   2.378   1.900
 1094SOL    HW3 4407   2.405   2.369   1.908
 1094SOL    MW4 4408   2.481   2.348   1.869
 1095SOL     OW 4409   2.256   2.436   1.999
 1095SOL    HW2 4410   2.262   2.440   2.094
 1095SOL    HW3 4411   2.249   2.528   1.972
 1095SOL    MW4 4412   2.256   2.449   2.008
 1096SOL     OW 4413   2.212   2.712   1.901
 1096SOL    HW2 4414   2.129   2.750   1.931
 1096SOL    HW3 4415   2.204   2.709   1.805
 1096SOL    MW4 4416   2.200   2.717   1.892
 1097SOL     OW 4417   2.463   2.837   1.978
 1097SOL    HW2 4418   2.480   2.924   1.943
 1097SOL    HW3 4419   2.377   2.813   1.941
 1097SOL    MW4 4420   2.454   2.845   1.968
 1098SOL     OW 4421   2.484   3.089   1.865
 1098SOL    HW2 4422   2.408   3.137   1.900
 1098SOL    HW3 4423   2.467   3.082   1.771
 1098SOL    MW4 4424   2.472   3.094   1.857
 1099SOL     OW 4425   2.253   3.214   1.953
 1099SOL    HW2 4426   2.238   3.218   2.048
 1099SOL    HW3 4427   2.176   3.169   1.918
 1099SOL    MW4 4428   2.241   3.209   1.961
 1100SOL     OW 4429   2.257   3.475   1.852
 1100SOL    HW2 4430   2.245   3.387   1.888
 1100SOL    HW3 4431   2.190   3.528   1.897
 1100SOL    MW4 4432   2.246   3.471   1.863
 1101SOL     OW 4433   2.479   3.632   1.930
 1101SOL    HW2 4434   2.489   3.613   2.024
 1101SOL    HW3 4435   2.394   3.595   1.907
 1101SOL    MW4 4436   2.469   3.624   1.939
 1102SOL     OW 4437   2.477   3.889   1.800
 1102SOL    HW2 4438   2.407   3.937   1.844
 1102SOL    HW3 4439   2.487   3.809   1.851
 1102SOL    MW4 4440   2.469   3.885   1.812
 1103SOL     OW 4441   2.256   3.987   1.945
 1103SOL    HW2 4442   2.247   3.982   2.041
 1103SOL    HW3 4443   2.233   4.078   1.924
 1103SOL    MW4 4444   2.252   3.998   1.955
 1104SOL     OW 4445   2.213   4.240   1.867
 1104SOL    HW2 4446   2.294   4.284   1.892
 1104SOL    HW3 4447   2.207   4.253   1.773
 1104SOL    MW4 4448   2.223   4.247   1.858
 1105SOL     OW 4449   2.447   4.372   1.943
 1105SOL    HW2 4450   2.449   4.372   2.038
 1105SOL    HW3 4451   2.530   4.333   1.916
 1105SOL    MW4 4452   2.458   4.367   1.952
 1106SOL     OW 4453   2.971   4.637   1.830
 1106SOL    HW2 4454   3.040   4.679   1.882
 1106SOL    HW3 4455   2.972   4.546   1.859
 1106SOL    MW4 4456   2.981   4.630   1.841
 1107SOL     OW 4457   2.725   0.086   1.915
 1107SOL    HW2 4458   2.717   0.088   2.010
 1107SOL    HW3 4459   2.804   0.033   1.899
 1107SOL    MW4 4460   2.735   0.079   1.925
 1108SOL     OW 4461   2.672   0.359   1.837
 1108SOL    HW2 4462   2.743   0.402   1.884
 1108SOL    HW3 4463   2.682   0.266   1.858
 1108SOL    MW4 4464   2.683   0.352   1.846
 1109SOL     OW 4465   2.904   0.444   1.980
 1109SOL    HW2 4466   2.981   0.391   1.959
 1109SOL    HW3 4467   2.932   0.534   1.965
 1109SOL    MW4 4468   2.918   0.449   1.975
 1110SOL     OW 4469   2.993   0.722   1.875
 1110SOL    HW2 4470   3.075   0.748   1.917
 1110SOL    HW3 4471   2.929   0.787   1.903
 1110SOL    MW4 4472   2.995   0.734   1.884
 1111SOL     OW 4473   2.788   0.890   1.945
 1111SOL    HW2 4474   2.788   0.981   1.917
 1111SOL    HW3 4475   2.696   0.863   1.938
 1111SOL    MW4 4476   2.776   0.898   1.940
 1112SOL     OW 4477   2.738   1.163   1.891
 1112SOL    HW2 4478   2.659   1.178   1.943
 1112SOL    HW3 4479   2.710   1.179   1.801
 1112SOL    MW4 4480   2.724   1.167   1.886
 1113SOL     OW 4481   2.967   1.301   1.982
 1113SOL    HW2 4482   2.959   1.390   1.948
 1113SOL    HW3 4483   2.885   1.258   1.957
 1113SOL    MW4 4484   2.955   1.307   1.974
 1114SOL     OW 4485   2.906   1.556   1.881
 1114SOL    HW2 4486   2.991   1.581   1.919
 1114SOL    HW3 4487   2.916   1.573   1.787
 1114SOL    MW4 4488   2.919   1.561   1.874
 1115SOL     OW 4489   2.676   1.664   1.994
 1115SOL    HW2 4490   2.760   1.630   1.965
 1115SOL    HW3 4491   2.613   1.597   1.969
 1115SOL    MW4 4492   2.679   1.651   1.987
 1116SOL     OW 4493   2.662   1.900   1.857
 1116SOL    HW2 4494   2.734   1.944   1.902
 1116SOL    HW3 4495   2.650   1.818   1.906
 1116SOL    MW4 4496   2.670   1.895   1.869
 1117SOL     OW 4497   2.872   2.050   1.976
 1117SOL    HW2 4498   2.859   2.039   2.071
 1117SOL    HW3 4499   2.956   2.009   1.959
 1117SOL    MW4 4500   2.881   2.043   1.986
 1118SOL     OW 4501   2.853   2.319   1.904
 1118SOL    HW2 4502   2.936   2.359   1.928
 1118SOL    HW3 4503   2.862   2.227   1.928
 1118SOL    MW4 4504   2.865   2.312   1.910
 1119SOL     OW 4505   2.650   2.440   2.030
 1119SOL    HW2 4506   2.659   2.532   2.003
 1119SOL    HW3 4507   2.728   2.397   1.997
 1119SOL    MW4 4508   2.661   2.447   2.022
 1120SOL     OW 4509   2.684   2.700   1.929
 1120SOL    HW2 4510   2.602   2.745   1.945
 1120SOL    HW3 4511   2.692   2.698   1.833
 1120SOL    MW4 4512   2.674   2.705   1.918
 1121SOL     OW 4513   2.913   2.821   2.036
 1121SOL    HW2 4514   2.941   2.891   1.977
 1121SOL    HW3 4515   2.829   2.791   2.000
 1121SOL    MW4 4516   2.905   2.826   2.024
 1122SOL     OW 4517   2.945   3.035   1.863
 1122SOL    HW2 4518   3.025   3.072   1.902
 1122SOL    HW3 4519   2.875   3.092   1.895
 1122SOL    MW4 4520   2.946   3.047   1.873
 1123SOL     OW 4521   2.715   3.207   1.951
 1123SOL    HW2 4522   2.713   3.298   1.922
 1123SOL    HW3 4523   2.632   3.170   1.921
 1123SOL    MW4 4524   2.704   3.214   1.943
 1124SOL     OW 4525   2.679   3.468   1.855
 1124SOL    HW2 4526   2.760   3.510   1.884
 1124SOL    HW3 4527   2.609   3.524   1.890
 1124SOL    MW4 4528   2.680   3.481   1.863
 1125SOL     OW 4529   2.913   3.583   1.951
 1125SOL    HW2 4530   2.924   3.591   2.046
 1125SOL    HW3 4531   2.984   3.525   1.924
 1125SOL    MW4 4532   2.924   3.577   1.960
 1126SOL     OW 4533   2.905   3.864   1.906
 1126SOL    HW2 4534   2.902   3.771   1.927
 1126SOL    HW3 4535   2.918   3.868   1.812
 1126SOL    MW4 4536   2.906   3.852   1.897
 1127SOL     OW 4537   2.687   4.010   1.941
 1127SOL    HW2 4538   2.760   3.955   1.913
 1127SOL    HW3 4539   2.610   3.974   1.896
 1127SOL    MW4 4540   2.686   3.998   1.931
 1128SOL     OW 4541   2.691   4.274   1.850
 1128SOL    HW2 4542   2.712   4.189   1.890
 1128SOL    HW3 4543   2.696   4.259   1.756
 1128SOL    MW4 4544   2.694   4.261   1.843
 1129SOL     OW 4545   2.935   4.368   1.920
 1129SOL    HW2 4546   2.932   4.363   2.016
 1129SOL    HW3 4547   2.847   4.343   1.892
 1129SOL    MW4 4548   2.923   4.364   1.929
 1130SOL     OW 4549   3.379   4.626   1.868
 1130SOL    HW2 4550   3.382   4.533   1.891
 1130SOL    HW3 4551   3.380   4.628   1.772
 1130SOL    MW4 4552   3.380   4.614   1.858
 1131SOL     OW 4553   3.163   0.094   1.988
 1131SOL    HW2 4554   3.164   0.086   2.083
 1131SOL    HW3 4555   3.242   0.048   1.960
 1131SOL    MW4 4556   3.174   0.087   1.997
 1132SOL     OW 4557   3.180   0.344   1.895
 1132SOL    HW2 4558   3.169   0.254   1.926
 1132SOL    HW3 4559   3.186   0.336   1.800
 1132SOL    MW4 4560   3.179   0.331   1.887
 1133SOL     OW 4561   3.405   0.489   1.970
 1133SOL    HW2 4562   3.479   0.429   1.972
 1133SOL    HW3 4563   3.328   0.433   1.963
 1133SOL    MW4 4564   3.405   0.474   1.969
 1134SOL     OW 4565   3.399   0.742   1.872
 1134SOL    HW2 4566   3.326   0.773   1.926
 1134SOL    HW3 4567   3.405   0.649   1.893
 1134SOL    MW4 4568   3.390   0.734   1.882
 1135SOL     OW 4569   3.192   0.854   2.019
 1135SOL    HW2 4570   3.201   0.857   2.114
 1135SOL    HW3 4571   3.164   0.942   1.994
 1135SOL    MW4 4572   3.189   0.866   2.028
 1136SOL     OW 4573   3.180   1.119   1.945
 1136SOL    HW2 4574   3.258   1.157   1.985
 1136SOL    HW3 4575   3.113   1.187   1.953
 1136SOL    MW4 4576   3.181   1.133   1.951
 1137SOL     OW 4577   3.413   1.288   1.973
 1137SOL    HW2 4578   3.410   1.290   2.069
 1137SOL    HW3 4579   3.412   1.380   1.947
 1137SOL    MW4 4580   3.413   1.300   1.982
 1138SOL     OW 4581   3.409   1.535   1.859
 1138SOL    HW2 4582   3.474   1.588   1.905
 1138SOL    HW3 4583   3.325   1.575   1.883
 1138SOL    MW4 4584   3.406   1.548   1.868
 1139SOL     OW 4585   3.179   1.658   1.990
 1139SOL    HW2 4586   3.189   1.678   2.083
 1139SOL    HW3 4587   3.165   1.743   1.949
 1139SOL    MW4 4588   3.178   1.672   1.997
 1140SOL     OW 4589   3.107   1.916   1.899
 1140SOL    HW2 4590   3.179   1.963   1.941
 1140SOL    HW3 4591   3.124   1.926   1.805
 1140SOL    MW4 4592   3.119   1.924   1.892
 1141SOL     OW 4593   3.335   2.061   1.961
 1141SOL    HW2 4594   3.412   2.010   1.934
 1141SOL    HW3 4595   3.354   2.150   1.932
 1141SOL    MW4 4596   3.348   2.066   1.954
 1142SOL     OW 4597   3.344   2.322   1.889
 1142SOL    HW2 4598   3.258   2.358   1.910
 1142SOL    HW3 4599   3.349   2.326   1.794
 1142SOL    MW4 4600   3.333   2.327   1.879
 1143SOL     OW 4601   3.100   2.433   1.989
 1143SOL    HW2 4602   3.105   2.432   2.085
 1143SOL    HW3 4603   3.121   2.523   1.965
 1143SOL    MW4 4604   3.103   2.445   1.998
 1144SOL     OW 4605   3.155   2.690   1.934
 1144SOL    HW2 4606   3.072   2.731   1.957
 1144SOL    HW3 4607   3.154   2.684   1.839
 1144SOL    MW4 4608   3.144   2.695   1.924
 1145SOL     OW 4609   3.383   2.806   2.017
 1145SOL    HW2 4610   3.394   2.793   2.111
 1145SOL    HW3 4611   3.297   2.769   1.997
 1145SOL    MW4 4612   3.374   2.800   2.027
 1146SOL     OW 4613   3.396   3.062   1.895
 1146SOL    HW2 4614   3.467   3.114   1.932
 1146SOL    HW3 4615   3.389   2.985   1.952
 1146SOL    MW4 4616   3.404   3.058   1.907
 1147SOL     OW 4617   3.158   3.183   1.965
 1147SOL    HW2 4618   3.159   3.266   1.916
 1147SOL    HW3 4619   3.237   3.138   1.935
 1147SOL    MW4 4620   3.169   3.188   1.954
 1148SOL     OW 4621   3.135   3.443   1.871
 1148SOL    HW2 4622   3.213   3.492   1.897
 1148SOL    HW3 4623   3.131   3.455   1.776
 1148SOL    MW4 4624   3.145   3.451   1.862
 1149SOL     OW 4625   3.365   3.569   1.979
 1149SOL    HW2 4626   3.443   3.527   1.942
 1149SOL    HW3 4627   3.380   3.663   1.966
 1149SOL    MW4 4628   3.377   3.576   1.972
 1150SOL     OW 4629   3.345   3.841   1.918
 1150SOL    HW2 4630   3.273   3.896   1.948
 1150SOL    HW3 4631   3.346   3.853   1.823
 1150SOL    MW4 4632   3.336   3.850   1.909
 1151SOL     OW 4633   3.136   3.989   2.008
 1151SOL    HW2 4634   3.145   3.987   2.103
 1151SOL    HW3 4635   3.052   3.946   1.991
 1151SOL    MW4 4636   3.126   3.983   2.018
 1152SOL     OW 4637   3.170   4.239   1.873
 1152SOL    HW2 4638   3.163   4.154   1.916
 1152SOL    HW3 4639   3.087   4.282   1.890
 1152SOL    MW4 4640   3.158   4.233   1.881
 1153SOL     OW 4641   3.399   4.373   1.953
 1153SOL    HW2 4642   3.475   4.321   1.927
 1153SOL    HW3 4643   3.325   4.331   1.911
 1153SOL    MW4 4644   3.399   4.361   1.944
 1154SOL     OW 4645   3.858   4.650   1.865
 1154SOL    HW2 4646   3.871   4.560   1.896
 1154SOL    HW3 4647   3.779   4.680   1.910
 1154SOL    MW4 4648   3.849   4.642   1.875
 1155SOL     OW 4649   3.610   0.090   1.966
 1155SOL    HW2 4650   3.591   0.104   2.059
 1155SOL    HW3 4651   3.534   0.043   1.932
 1155SOL    MW4 4652   3.598   0.086   1.974
 1156SOL     OW 4653   3.643   0.367   1.921
 1156SOL    HW2 4654   3.641   0.272   1.926
 1156SOL    HW3 4655   3.621   0.387   1.830
 1156SOL    MW4 4656   3.640   0.357   1.910
 1157SOL     OW 4657   3.899   0.467   1.975
 1157SOL    HW2 4658   3.874   0.556   1.950
 1157SOL    HW3 4659   3.820   0.415   1.963
 1157SOL    MW4 4660   3.886   0.472   1.970
 1158SOL     OW 4661   3.842   0.726   1.904
 1158SOL    HW2 4662   3.768   0.774   1.942
 1158SOL    HW3 4663   3.827   0.730   1.809
 1158SOL    MW4 4664   3.830   0.733   1.896
 1159SOL     OW 4665   3.611   0.875   1.989
 1159SOL    HW2 4666   3.617   0.964   1.954
 1159SOL    HW3 4667   3.536   0.837   1.943
 1159SOL    MW4 4668   3.602   0.882   1.978
 1160SOL     OW 4669   3.633   1.142   1.871
 1160SOL    HW2 4670   3.565   1.199   1.907
 1160SOL    HW3 4671   3.620   1.147   1.776
 1160SOL    MW4 4672   3.622   1.151   1.863
 1161SOL     OW 4673   3.840   1.293   1.969
 1161SOL    HW2 4674   3.828   1.266   2.059
 1161SOL    HW3 4675   3.766   1.255   1.921
 1161SOL    MW4 4676   3.829   1.285   1.974
 1162SOL     OW 4677   3.833   1.556   1.864
 1162SOL    HW2 4678   3.906   1.595   1.913
 1162SOL    HW3 4679   3.825   1.468   1.900
 1162SOL    MW4 4680   3.842   1.549   1.875
 1163SOL     OW 4681   3.605   1.670   1.990
 1163SOL    HW2 4682   3.608   1.762   1.963
 1163SOL    HW3 4683   3.690   1.635   1.966
 1163SOL    MW4 4684   3.616   1.678   1.983
 1164SOL     OW 4685   3.575   1.934   1.891
 1164SOL    HW2 4686   3.649   1.990   1.913
 1164SOL    HW3 4687   3.583   1.919   1.797
 1164SOL    MW4 4688   3.586   1.940   1.882
 1165SOL     OW 4689   3.802   2.075   1.940
 1165SOL    HW2 4690   3.885   2.032   1.918
 1165SOL    HW3 4691   3.811   2.164   1.905
 1165SOL    MW4 4692   3.814   2.081   1.933
 1166SOL     OW 4693   3.762   2.327   1.843
 1166SOL    HW2 4694   3.840   2.376   1.870
 1166SOL    HW3 4695   3.693   2.357   1.901
 1166SOL    MW4 4696   3.763   2.337   1.854
 1167SOL     OW 4697   3.561   2.423   2.007
 1167SOL    HW2 4698   3.570   2.509   1.966
 1167SOL    HW3 4699   3.480   2.388   1.972
 1167SOL    MW4 4700   3.552   2.430   1.997
 1168SOL     OW 4701   3.597   2.671   1.898
 1168SOL    HW2 4702   3.679   2.718   1.912
 1168SOL    HW3 4703   3.533   2.720   1.950
 1168SOL    MW4 4704   3.600   2.684   1.907
 1169SOL     OW 4705   3.809   2.852   1.956
 1169SOL    HW2 4706   3.800   2.862   2.051
 1169SOL    HW3 4707   3.808   2.942   1.923
 1169SOL    MW4 4708   3.808   2.865   1.964
 1170SOL     OW 4709   3.809   3.101   1.865
 1170SOL    HW2 4710   3.732   3.148   1.897
 1170SOL    HW3 4711   3.801   3.103   1.770
 1170SOL    MW4 4712   3.798   3.108   1.857
 1171SOL     OW 4713   3.600   3.234   1.986
 1171SOL    HW2 4714   3.591   3.219   2.080
 1171SOL    HW3 4715   3.606   3.329   1.977
 1171SOL    MW4 4716   3.599   3.244   1.997
 1172SOL     OW 4717   3.610   3.500   1.870
 1172SOL    HW2 4718   3.678   3.564   1.887
 1172SOL    HW3 4719   3.610   3.488   1.775
 1172SOL    MW4 4720   3.619   3.507   1.860
 1173SOL     OW 4721   3.845   3.633   1.937
 1173SOL    HW2 4722   3.920   3.580   1.909
 1173SOL    HW3 4723   3.854   3.715   1.889
 1173SOL    MW4 4724   3.856   3.636   1.927
 1174SOL     OW 4725   3.819   3.882   1.845
 1174SOL    HW2 4726   3.735   3.920   1.872
 1174SOL    HW3 4727   3.805   3.854   1.755
 1174SOL    MW4 4728   3.806   3.884   1.837
 1175SOL     OW 4729   3.577   3.988   1.981
 1175SOL    HW2 4730   3.580   3.985   2.077
 1175SOL    HW3 4731   3.499   3.939   1.958
 1175SOL    MW4 4732   3.567   3.982   1.991
 1176SOL     OW 4733   3.633   4.246   1.872
 1176SOL    HW2 4734   3.708   4.292   1.911
 1176SOL    HW3 4735   3.627   4.164   1.920
 1176SOL    MW4 4736   3.642   4.241   1.884
 1177SOL     OW 4737   3.873   4.392   1.973
 1177SOL    HW2 4738   3.875   4.402   2.068
 1177SOL    HW3 4739   3.944   4.330   1.954
 1177SOL    MW4 4740   3.883   4.385   1.983
 1178SOL     OW 4741   4.281   4.658   1.827
 1178SOL    HW2 4742   4.216   4.691   1.890
 1178SOL    HW3 4743   4.364   4.691   1.860
 1178SOL    MW4 4744   4.283   4.667   1.840
 1179SOL     OW 4745   4.079   0.057   1.989
 1179SOL    HW2 4746   4.066   0.050   2.084
 1179SOL    HW3 4747   3.993   0.039   1.952
 1179SOL    MW4 4748   4.066   0.054   1.997
 1180SOL     OW 4749   4.079   0.305   1.876
 1180SOL    HW2 4750   4.083   0.226   1.929
 1180SOL    HW3 4751   4.012   0.359   1.918
 1180SOL    MW4 4752   4.070   0.302   1.888
 1181SOL     OW 4753   4.311   0.489   1.958
 1181SOL    HW2 4754   4.313   0.489   2.054
 1181SOL    HW3 4755   4.235   0.437   1.935
 1181SOL    MW4 4756   4.301   0.482   1.968
 1182SOL     OW 4757   4.295   0.750   1.874
 1182SOL    HW2 4758   4.303   0.655   1.884
 1182SOL    HW3 4759   4.289   0.764   1.779
 1182SOL    MW4 4760   4.295   0.739   1.863
 1183SOL     OW 4761   4.059   0.862   1.977
 1183SOL    HW2 4762   4.133   0.812   1.943
 1183SOL    HW3 4763   3.982   0.815   1.946
 1183SOL    MW4 4764   4.059   0.850   1.968
 1184SOL     OW 4765   4.034   1.118   1.848
 1184SOL    HW2 4766   4.040   1.038   1.900
 1184SOL    HW3 4767   3.956   1.163   1.881
 1184SOL    MW4 4768   4.025   1.114   1.859
 1185SOL     OW 4769   4.219   1.306   1.952
 1185SOL    HW2 4770   4.206   1.304   2.047
 1185SOL    HW3 4771   4.149   1.251   1.917
 1185SOL    MW4 4772   4.208   1.299   1.960
 1186SOL     OW 4773   4.225   1.585   1.869
 1186SOL    HW2 4774   4.229   1.492   1.892
 1186SOL    HW3 4775   4.238   1.586   1.774
 1186SOL    MW4 4776   4.227   1.573   1.860
 1187SOL     OW 4777   4.034   1.688   2.034
 1187SOL    HW2 4778   4.056   1.661   2.124
 1187SOL    HW3 4779   4.094   1.638   1.979
 1187SOL    MW4 4780   4.045   1.678   2.039
 1188SOL     OW 4781   4.056   1.924   1.870
 1188SOL    HW2 4782   4.046   1.837   1.909
 1188SOL    HW3 4783   4.039   1.910   1.777
 1188SOL    MW4 4784   4.052   1.911   1.863
 1189SOL     OW 4785   4.311   2.040   1.959
 1189SOL    HW2 4786   4.314   2.033   2.054
 1189SOL    HW3 4787   4.234   1.989   1.933
 1189SOL    MW4 4788   4.301   2.032   1.968
 1190SOL     OW 4789   4.274   2.296   1.873
 1190SOL    HW2 4790   4.289   2.207   1.903
 1190SOL    HW3 4791   4.346   2.347   1.910
 1190SOL    MW4 4792   4.285   2.291   1.882
 1191SOL     OW 4793   4.023   2.406   1.950
 1191SOL    HW2 4794   4.010   2.394   2.044
 1191SOL    HW3 4795   4.106   2.362   1.932
 1191SOL    MW4 4796   4.032   2.398   1.960
 1192SOL     OW 4797   4.036   2.684   1.892
 1192SOL    HW2 4798   4.014   2.597   1.924
 1192SOL    HW3 4799   3.964   2.739   1.921
 1192SOL    MW4 4800   4.024   2.680   1.900
 1193SOL     OW 4801   4.257   2.840   1.962
 1193SOL    HW2 4802   4.257   2.844   2.058
 1193SOL    HW3 4803   4.188   2.776   1.941
 1193SOL    MW4 4804   4.248   2.832   1.972
 1194SOL     OW 4805   4.243   3.115   1.844
 1194SOL    HW2 4806   4.164   3.150   1.884
 1194SOL    HW3 4807   4.252   3.027   1.880
 1194SOL    MW4 4808   4.234   3.108   1.854
 1195SOL     OW 4809   4.025   3.246   1.968
 1195SOL    HW2 4810   4.020   3.242   2.064
 1195SOL    HW3 4811   3.942   3.208   1.939
 1195SOL    MW4 4812   4.013   3.240   1.977
 1196SOL     OW 4813   4.080   3.496   1.868
 1196SOL    HW2 4814   4.167   3.522   1.898
 1196SOL    HW3 4815   4.069   3.406   1.899
 1196SOL    MW4 4816   4.090   3.488   1.876
 1197SOL     OW 4817   4.303   3.580   1.998
 1197SOL    HW2 4818   4.294   3.668   1.961
 1197SOL    HW3 4819   4.376   3.541   1.949
 1197SOL    MW4 4820   4.312   3.586   1.986
 1198SOL     OW 4821   4.241   3.841   1.939
 1198SOL    HW2 4822   4.318   3.890   1.968
 1198SOL    HW3 4823   4.259   3.823   1.846
 1198SOL    MW4 4824   4.254   3.845   1.930
 1199SOL     OW 4825   4.014   3.980   2.027
 1199SOL    HW2 4826   4.094   3.929   2.024
 1199SOL    HW3 4827   3.955   3.937   1.966
 1199SOL    MW4 4828   4.017   3.968   2.019
 1200SOL     OW 4829   4.083   4.223   1.877
 1200SOL    HW2 4830   4.152   4.279   1.914
 1200SOL    HW3 4831   4.094   4.139   1.922
 1200SOL    MW4 4832   4.094   4.220   1.888
 1201SOL     OW 4833   4.288   4.398   1.955
 1201SOL    HW2 4834   4.292   4.412   2.050
 1201SOL    HW3 4835   4.258   4.482   1.920
 1201SOL    MW4 4836   4.285   4.411   1.963
 1202SOL     OW 4837   0.222   4.666   2.337
 1202SOL    HW2 4838   0.234   4.658   2.432
 1202SOL    HW3 4839   0.301   4.711   2.307
 1202SOL    MW4 4840   0.234   4.671   2.346
 1203SOL     OW 4841   4.479   0.098   2.202
 1203SOL    HW2 4842   4.566   0.062   2.222
 1203SOL    HW3 4843   4.477   0.104   2.106
 1203SOL    MW4 4844   4.490   0.094   2.192
 1204SOL     OW 4845   0.029   0.320   2.374
 1204SOL    HW2 4846   0.098   0.368   2.327
 1204SOL    HW3 4847   0.020   0.238   2.325
 1204SOL    MW4 4848   0.037   0.316   2.361
 1205SOL     OW 4849   0.209   0.482   2.239
 1205SOL    HW2 4850   0.298   0.463   2.268
 1205SOL    HW3 4851   0.217   0.500   2.145
 1205SOL    MW4 4852   0.222   0.482   2.230
 1206SOL     OW 4853   0.218   0.750   2.307
 1206SOL    HW2 4854   0.230   0.764   2.401
 1206SOL    HW3 4855   0.236   0.657   2.294
 1206SOL    MW4 4856   0.222   0.740   2.318
 1207SOL     OW 4857   4.475   0.873   2.251
 1207SOL    HW2 4858   4.563   0.835   2.256
 1207SOL    HW3 4859   4.459   0.883   2.157
 1207SOL    MW4 4860   4.485   0.869   2.239
 1208SOL     OW 4861   4.461   1.139   2.332
 1208SOL    HW2 4862   4.462   1.132   2.427
 1208SOL    HW3 4863   4.449   1.049   2.302
 1208SOL    MW4 4864   4.459   1.126   2.341
 1209SOL     OW 4865   0.224   1.257   2.272
 1209SOL    HW2 4866   0.140   1.212   2.278
 1209SOL    HW3 4867   0.254   1.240   2.182
 1209SOL    MW4 4868   0.217   1.249   2.261
 1210SOL     OW 4869   0.202   1.515   2.323
 1210SOL    HW2 4870   0.181   1.511   2.417
 1210SOL    HW3 4871   0.212   1.424   2.297
 1210SOL    MW4 4872   0.200   1.502   2.332
 1211SOL     OW 4873   4.487   1.657   2.231
 1211SOL    HW2 4874   4.496   1.731   2.291
 1211SOL    HW3 4875   4.553   1.595   2.259
 1211SOL    MW4 4876   4.497   1.659   2.242
 1212SOL     OW 4877   4.468   1.888   2.373
 1212SOL    HW2 4878   4.398   1.946   2.341
 1212SOL    HW3 4879   4.548   1.940   2.365
 1212SOL    MW4 4880   4.469   1.903   2.368
 1213SOL     OW 4881   0.221   2.013   2.303
 1213SOL    HW2 4882   0.310   1.982   2.319
 1213SOL    HW3 4883   0.214   2.017   2.207
 1213SOL    MW4 4884   0.232   2.010   2.292
 1214SOL     OW 4885   0.230   2.294   2.354
 1214SOL    HW2 4886   0.220   2.317   2.446
 1214SOL    HW3 4887   0.216   2.199   2.351
 1214SOL    MW4 4888   0.227   2.285   2.366
 1215SOL     OW 4889   0.009   2.430   2.228
 1215SOL    HW2 4890   0.020   2.519   2.262
 1215SOL    HW3 4891   0.082   2.381   2.266
 1215SOL    MW4 4892   0.020   2.435   2.237
 1216SOL     OW 4893   0.015   2.703   2.356
 1216SOL    HW2 4894   0.033   2.698   2.450
 1216SOL    HW3 4895   0.083   2.763   2.322
 1216SOL    MW4 4896   0.027   2.710   2.364
 1217SOL     OW 4897   0.209   2.867   2.263
 1217SOL    HW2 4898   0.296   2.837   2.289
 1217SOL    HW3 4899   0.209   2.862   2.168
 1217SOL    MW4 4900   0.220   2.863   2.254
 1218SOL     OW 4901   0.210   3.107   2.387
 1218SOL    HW2 4902   0.148   3.165   2.343
 1218SOL    HW3 4903   0.192   3.021   2.348
 1218SOL    MW4 4904   0.199   3.103   2.376
 1219SOL     OW 4905   4.479   3.218   2.274
 1219SOL    HW2 4906   4.452   3.308   2.295
 1219SOL    HW3 4907   4.481   3.216   2.178
 1219SOL    MW4 4908   4.476   3.230   2.264
 1220SOL     OW 4909   4.482   3.501   2.346
 1220SOL    HW2 4910   4.498   3.477   2.438
 1220SOL    HW3 4911   4.394   3.538   2.346
 1220SOL    MW4 4912   4.473   3.503   2.358
 1221SOL     OW 4913   0.227   3.608   2.237
 1221SOL    HW2 4914   0.292   3.561   2.288
 1221SOL    HW3 4915   0.143   3.573   2.267
 1221SOL    MW4 4916   0.224   3.597   2.248
 1222SOL     OW 4917   0.229   3.860   2.369
 1222SOL    HW2 4918   0.150   3.891   2.324
 1222SOL    HW3 4919   0.248   3.775   2.328
 1222SOL    MW4 4920   0.221   3.853   2.358
 1223SOL     OW 4921   0.010   4.002   2.270
 1223SOL    HW2 4922   0.030   4.085   2.314
 1223SOL    HW3 4923   0.029   4.019   2.178
 1223SOL    MW4 4924   0.015   4.015   2.263
 1224SOL     OW 4925   0.007   4.276   2.365
 1224SOL    HW2 4926   0.019   4.278   2.460
 1224SOL    HW3 4927   0.077   4.331   2.331
 1224SOL    MW4 4928   0.018   4.284   2.373
 1225SOL     OW 4929   0.217   4.405   2.244
 1225SOL    HW2 4930   0.299   4.362   2.266
 1225SOL    HW3 4931   0.230   4.497   2.268
 1225SOL    MW4 4932   0.229   4.411   2.250
 1226SOL     OW 4933   0.682   0.008   2.326
 1226SOL    HW2 4934   0.680  -0.009   2.420
 1226SOL    HW3 4935   0.764   0.056   2.312
 1226SOL    MW4 4936   0.693   0.012   2.336
 1227SOL     OW 4937   0.438   0.135   2.231
 1227SOL    HW2 4938   0.522   0.101   2.261
 1227SOL    HW3 4939   0.443   0.129   2.135
 1227SOL    MW4 4940   0.449   0.129   2.222
 1228SOL     OW 4941   0.457   0.384   2.349
 1228SOL    HW2 4942   0.455   0.394   2.444
 1228SOL    HW3 4943   0.445   0.290   2.335
 1228SOL    MW4 4944   0.455   0.373   2.359
 1229SOL     OW 4945   0.693   0.506   2.212
 1229SOL    HW2 4946   0.683   0.595   2.244
 1229SOL    HW3 4947   0.621   0.457   2.252
 1229SOL    MW4 4948   0.682   0.511   2.222
 1230SOL     OW 4949   0.694   0.771   2.318
 1230SOL    HW2 4950   0.682   0.775   2.413
 1230SOL    HW3 4951   0.616   0.813   2.282
 1230SOL    MW4 4952   0.682   0.777   2.325
 1231SOL     OW 4953   0.452   0.889   2.222
 1231SOL    HW2 4954   0.387   0.820   2.234
 1231SOL    HW3 4955   0.445   0.913   2.129
 1231SOL    MW4 4956   0.443   0.883   2.211
 1232SOL     OW 4957   0.484   1.139   2.366
 1232SOL    HW2 4958   0.466   1.059   2.316
 1232SOL    HW3 4959   0.403   1.190   2.358
 1232SOL    MW4 4960   0.471   1.135   2.358
 1233SOL     OW 4961   0.702   1.256   2.231
 1233SOL    HW2 4962   0.719   1.339   2.276
 1233SOL    HW3 4963   0.621   1.223   2.271
 1233SOL    MW4 4964   0.694   1.262   2.242
 1234SOL     OW 4965   0.716   1.514   2.334
 1234SOL    HW2 4966   0.703   1.538   2.426
 1234SOL    HW3 4967   0.772   1.584   2.299
 1234SOL    MW4 4968   0.722   1.526   2.342
 1235SOL     OW 4969   0.451   1.657   2.270
 1235SOL    HW2 4970   0.521   1.598   2.300
 1235SOL    HW3 4971   0.371   1.610   2.291
 1235SOL    MW4 4972   0.450   1.643   2.277
 1236SOL     OW 4973   0.481   1.930   2.337
 1236SOL    HW2 4974   0.560   1.966   2.296
 1236SOL    HW3 4975   0.478   1.839   2.308
 1236SOL    MW4 4976   0.491   1.923   2.328
 1237SOL     OW 4977   0.683   2.087   2.229
 1237SOL    HW2 4978   0.769   2.045   2.240
 1237SOL    HW3 4979   0.697   2.177   2.259
 1237SOL    MW4 4980   0.696   2.094   2.235
 1238SOL     OW 4981   0.683   2.336   2.319
 1238SOL    HW2 4982   0.681   2.321   2.414
 1238SOL    HW3 4983   0.768   2.378   2.304
 1238SOL    MW4 4984   0.694   2.339   2.330
 1239SOL     OW 4985   0.443   2.471   2.246
 1239SOL    HW2 4986   0.523   2.424   2.270
 1239SOL    HW3 4987   0.375   2.430   2.300
 1239SOL    MW4 4988   0.445   2.459   2.256
 1240SOL     OW 4989   0.446   2.731   2.323
 1240SOL    HW2 4990   0.434   2.733   2.417
 1240SOL    HW3 4991   0.446   2.637   2.301
 1240SOL    MW4 4992   0.445   2.719   2.332
 1241SOL     OW 4993   0.688   2.837   2.250
 1241SOL    HW2 4994   0.757   2.793   2.299
 1241SOL    HW3 4995   0.611   2.781   2.264
 1241SOL    MW4 4996   0.687   2.824   2.258
 1242SOL     OW 4997   0.660   3.085   2.377
 1242SOL    HW2 4998   0.586   3.133   2.340
 1242SOL    HW3 4999   0.658   3.000   2.333
 1242SOL    MW4 5000   0.650   3.080   2.367
 1243SOL     OW 5001   0.452   3.214   2.268
 1243SOL    HW2 5002   0.384   3.164   2.311
 1243SOL    HW3 5003   0.439   3.197   2.174
 1243SOL    MW4 5004   0.442   3.205   2.261
 1244SOL     OW 5005   0.426   3.486   2.383
 1244SOL    HW2 5006   0.511   3.519   2.356
 1244SOL    HW3 5007   0.434   3.391   2.378
 1244SOL    MW4 5008   0.438   3.478   2.379
 1245SOL     OW 5009   0.676   3.650   2.269
 1245SOL    HW2 5010   0.674   3.743   2.292
 1245SOL    HW3 5011   0.667   3.649   2.173
 1245SOL    MW4 5012   0.674   3.662   2.259
 1246SOL     OW 5013   0.659   3.907   2.347
 1246SOL    HW2 5014   0.666   3.909   2.442
 1246SOL    HW3 5015   0.581   3.959   2.327
 1246SOL    MW4 5016   0.650   3.914   2.357
 1247SOL     OW 5017   0.418   4.050   2.261
 1247SOL    HW2 5018   0.358   3.990   2.305
 1247SOL    HW3 5019   0.405   4.033   2.168
 1247SOL    MW4 5020   0.409   4.040   2.254
 1248SOL     OW 5021   0.447   4.289   2.381
 1248SOL    HW2 5022   0.522   4.329   2.338
 1248SOL    HW3 5023   0.442   4.200   2.344
 1248SOL    MW4 5024   0.456   4.282   2.371
 1249SOL     OW 5025   0.679   4.395   2.253
 1249SOL    HW2 5026   0.684   4.487   2.279
 1249SOL    HW3 5027   0.674   4.398   2.157
 1249SOL    MW4 5028   0.679   4.407   2.244
 1250SOL     OW 5029   1.131   0.006   2.322
 1250SOL    HW2 5030   1.122  -0.016   2.415
 1250SOL    HW3 5031   1.051   0.054   2.301
 1250SOL    MW4 5032   1.119   0.009   2.332
 1251SOL     OW 5033   0.903   0.153   2.277
 1251SOL    HW2 5034   0.910   0.243   2.308
 1251SOL    HW3 5035   0.887   0.160   2.183
 1251SOL    MW4 5036   0.901   0.165   2.269
 1252SOL     OW 5037   0.907   0.411   2.395
 1252SOL    HW2 5038   0.987   0.450   2.360
 1252SOL    HW3 5039   0.837   0.444   2.338
 1252SOL    MW4 5040   0.908   0.420   2.383
 1253SOL     OW 5041   1.130   0.510   2.259
 1253SOL    HW2 5042   1.215   0.476   2.288
 1253SOL    HW3 5043   1.125   0.486   2.167
 1253SOL    MW4 5044   1.140   0.502   2.251
 1254SOL     OW 5045   1.124   0.788   2.333
 1254SOL    HW2 5046   1.048   0.813   2.281
 1254SOL    HW3 5047   1.138   0.695   2.312
 1254SOL    MW4 5048   1.116   0.779   2.324
 1255SOL     OW 5049   0.908   0.884   2.192
 1255SOL    HW2 5050   0.930   0.971   2.225
 1255SOL    HW3 5051   0.834   0.856   2.246
 1255SOL    MW4 5052   0.901   0.892   2.203
 1256SOL     OW 5053   0.935   1.143   2.317
 1256SOL    HW2 5054   0.995   1.209   2.283
 1256SOL    HW3 5055   0.848   1.173   2.291
 1256SOL    MW4 5056   0.932   1.155   2.309
 1257SOL     OW 5057   1.139   1.321   2.248
 1257SOL    HW2 5058   1.204   1.257   2.279
 1257SOL    HW3 5059   1.160   1.332   2.155
 1257SOL    MW4 5060   1.150   1.314   2.240
 1258SOL     OW 5061   1.126   1.587   2.366
 1258SOL    HW2 5062   1.057   1.622   2.309
 1258SOL    HW3 5063   1.122   1.492   2.353
 1258SOL    MW4 5064   1.116   1.579   2.357
 1259SOL     OW 5065   0.902   1.693   2.231
 1259SOL    HW2 5066   0.894   1.787   2.249
 1259SOL    HW3 5067   0.913   1.688   2.136
 1259SOL    MW4 5068   0.902   1.705   2.221
 1260SOL     OW 5069   0.920   1.957   2.298
 1260SOL    HW2 5070   0.925   1.944   2.393
 1260SOL    HW3 5071   0.994   2.015   2.278
 1260SOL    MW4 5072   0.930   1.963   2.308
 1261SOL     OW 5073   1.157   2.118   2.265
 1261SOL    HW2 5074   1.217   2.057   2.309
 1261SOL    HW3 5075   1.154   2.087   2.175
 1261SOL    MW4 5076   1.165   2.106   2.259
 1262SOL     OW 5077   1.160   2.362   2.385
 1262SOL    HW2 5078   1.225   2.405   2.330
 1262SOL    HW3 5079   1.150   2.274   2.347
 1262SOL    MW4 5080   1.167   2.356   2.373
 1263SOL     OW 5081   0.918   2.469   2.282
 1263SOL    HW2 5082   1.003   2.439   2.315
 1263SOL    HW3 5083   0.923   2.457   2.188
 1263SOL    MW4 5084   0.930   2.463   2.274
 1264SOL     OW 5085   0.904   2.726   2.376
 1264SOL    HW2 5086   0.884   2.700   2.466
 1264SOL    HW3 5087   0.914   2.642   2.330
 1264SOL    MW4 5088   0.903   2.711   2.382
 1265SOL     OW 5089   1.117   2.839   2.242
 1265SOL    HW2 5090   1.192   2.815   2.296
 1265SOL    HW3 5091   1.043   2.791   2.281
 1265SOL    MW4 5092   1.117   2.829   2.254
 1266SOL     OW 5093   1.091   3.080   2.363
 1266SOL    HW2 5094   1.016   3.131   2.330
 1266SOL    HW3 5095   1.091   3.001   2.309
 1266SOL    MW4 5096   1.081   3.076   2.351
 1267SOL     OW 5097   0.872   3.206   2.248
 1267SOL    HW2 5098   0.864   3.289   2.295
 1267SOL    HW3 5099   0.801   3.152   2.282
 1267SOL    MW4 5100   0.862   3.210   2.259
 1268SOL     OW 5101   0.891   3.466   2.344
 1268SOL    HW2 5102   0.897   3.475   2.439
 1268SOL    HW3 5103   0.835   3.538   2.317
 1268SOL    MW4 5104   0.885   3.477   2.353
 1269SOL     OW 5105   1.147   3.598   2.233
 1269SOL    HW2 5106   1.230   3.575   2.276
 1269SOL    HW3 5107   1.093   3.520   2.241
 1269SOL    MW4 5108   1.151   3.585   2.240
 1270SOL     OW 5109   1.093   3.853   2.327
 1270SOL    HW2 5110   1.164   3.904   2.289
 1270SOL    HW3 5111   1.098   3.768   2.284
 1270SOL    MW4 5112   1.103   3.849   2.316
 1271SOL     OW 5113   0.885   4.035   2.264
 1271SOL    HW2 5114   0.949   3.965   2.277
 1271SOL    HW3 5115   0.805   4.002   2.304
 1271SOL    MW4 5116   0.883   4.021   2.271
 1272SOL     OW 5117   0.901   4.280   2.390
 1272SOL    HW2 5118   0.891   4.191   2.356
 1272SOL    HW3 5119   0.837   4.331   2.340
 1272SOL    MW4 5120   0.891   4.275   2.379
 1273SOL     OW 5121   1.124   4.380   2.268
 1273SOL    HW2 5122   1.051   4.345   2.319
 1273SOL    HW3 5123   1.126   4.473   2.290
 1273SOL    MW4 5124   1.114   4.388   2.277
 1274SOL     OW 5125   1.567   4.632   2.333
 1274SOL    HW2 5126   1.644   4.678   2.299
 1274SOL    HW3 5127   1.493   4.686   2.307
 1274SOL    MW4 5128   1.567   4.645   2.325
 1275SOL     OW 5129   1.369   0.142   2.272
 1275SOL    HW2 5130   1.360   0.225   2.319
 1275SOL    HW3 5131   1.287   0.095   2.290
 1275SOL    MW4 5132   1.357   0.146   2.281
 1276SOL     OW 5133   1.355   0.402   2.372
 1276SOL    HW2 5134   1.373   0.401   2.466
 1276SOL    HW3 5135   1.434   0.441   2.333
 1276SOL    MW4 5136   1.368   0.407   2.379
 1277SOL     OW 5137   1.592   0.497   2.255
 1277SOL    HW2 5138   1.640   0.428   2.300
 1277SOL    HW3 5139   1.623   0.492   2.164
 1277SOL    MW4 5140   1.602   0.487   2.249
 1278SOL     OW 5141   1.571   0.759   2.327
 1278SOL    HW2 5142   1.652   0.802   2.300
 1278SOL    HW3 5143   1.583   0.667   2.306
 1278SOL    MW4 5144   1.583   0.753   2.321
 1279SOL     OW 5145   1.349   0.894   2.228
 1279SOL    HW2 5146   1.421   0.835   2.251
 1279SOL    HW3 5147   1.272   0.853   2.267
 1279SOL    MW4 5148   1.348   0.881   2.236
 1280SOL     OW 5149   1.363   1.166   2.321
 1280SOL    HW2 5150   1.372   1.167   2.416
 1280SOL    HW3 5151   1.356   1.073   2.299
 1280SOL    MW4 5152   1.364   1.154   2.330
 1281SOL     OW 5153   1.598   1.271   2.214
 1281SOL    HW2 5154   1.517   1.231   2.245
 1281SOL    HW3 5155   1.581   1.291   2.122
 1281SOL    MW4 5156   1.585   1.269   2.206
 1282SOL     OW 5157   1.583   1.513   2.364
 1282SOL    HW2 5158   1.655   1.574   2.347
 1282SOL    HW3 5159   1.606   1.434   2.315
 1282SOL    MW4 5160   1.596   1.511   2.355
 1283SOL     OW 5161   1.361   1.678   2.270
 1283SOL    HW2 5162   1.432   1.618   2.293
 1283SOL    HW3 5163   1.282   1.636   2.305
 1283SOL    MW4 5164   1.360   1.665   2.278
 1284SOL     OW 5165   1.369   1.946   2.368
 1284SOL    HW2 5166   1.445   1.988   2.327
 1284SOL    HW3 5167   1.377   1.854   2.343
 1284SOL    MW4 5168   1.380   1.940   2.359
 1285SOL     OW 5169   1.570   2.088   2.276
 1285SOL    HW2 5170   1.642   2.034   2.310
 1285SOL    HW3 5171   1.578   2.083   2.181
 1285SOL    MW4 5172   1.581   2.080   2.268
 1286SOL     OW 5173   1.512   2.342   2.372
 1286SOL    HW2 5174   1.567   2.353   2.450
 1286SOL    HW3 5175   1.521   2.250   2.349
 1286SOL    MW4 5176   1.520   2.332   2.379
 1287SOL     OW 5177   1.323   2.488   2.227
 1287SOL    HW2 5178   1.397   2.443   2.267
 1287SOL    HW3 5179   1.318   2.453   2.138
 1287SOL    MW4 5180   1.332   2.478   2.221
 1288SOL     OW 5181   1.365   2.718   2.350
 1288SOL    HW2 5182   1.441   2.758   2.308
 1288SOL    HW3 5183   1.348   2.639   2.299
 1288SOL    MW4 5184   1.373   2.713   2.338
 1289SOL     OW 5185   1.574   2.857   2.258
 1289SOL    HW2 5186   1.577   2.950   2.282
 1289SOL    HW3 5187   1.565   2.858   2.162
 1289SOL    MW4 5188   1.573   2.869   2.248
 1290SOL     OW 5189   1.585   3.143   2.304
 1290SOL    HW2 5190   1.567   3.131   2.397
 1290SOL    HW3 5191   1.503   3.172   2.266
 1290SOL    MW4 5192   1.572   3.145   2.311
 1291SOL     OW 5193   1.314   3.230   2.240
 1291SOL    HW2 5194   1.238   3.176   2.261
 1291SOL    HW3 5195   1.314   3.234   2.145
 1291SOL    MW4 5196   1.304   3.223   2.230
 1292SOL     OW 5197   1.374   3.493   2.327
 1292SOL    HW2 5198   1.351   3.507   2.419
 1292SOL    HW3 5199   1.347   3.404   2.309
 1292SOL    MW4 5200   1.368   3.483   2.337
 1293SOL     OW 5201   1.560   3.637   2.203
 1293SOL    HW2 5202   1.557   3.723   2.244
 1293SOL    HW3 5203   1.502   3.583   2.258
 1293SOL    MW4 5204   1.552   3.641   2.216
 1294SOL     OW 5205   1.568   3.901   2.295
 1294SOL    HW2 5206   1.562   3.886   2.390
 1294SOL    HW3 5207   1.660   3.920   2.279
 1294SOL    MW4 5208   1.579   3.901   2.306
 1295SOL     OW 5209   1.300   4.025   2.238
 1295SOL    HW2 5210   1.381   3.977   2.254
 1295SOL    HW3 5211   1.300   4.040   2.143
 1295SOL    MW4 5212   1.310   4.021   2.227
 1296SOL     OW 5213   1.368   4.270   2.354
 1296SOL    HW2 5214   1.341   4.189   2.310
 1296SOL    HW3 5215   1.308   4.337   2.321
 1296SOL    MW4 5216   1.356   4.268   2.344
 1297SOL     OW 5217   1.590   4.381   2.239
 1297SOL    HW2 5218   1.523   4.330   2.285
 1297SOL    HW3 5219   1.586   4.467   2.279
 1297SOL    MW4 5220   1.581   4.385   2.250
 1298SOL     OW 5221   2.039   4.649   2.318
 1298SOL    HW2 5222   2.116   4.684   2.273
 1298SOL    HW3 5223   2.040   4.555   2.298
 1298SOL    MW4 5224   2.049   4.641   2.309
 1299SOL     OW 5225   1.799   0.086   2.226
 1299SOL    HW2 5226   1.789   0.169   2.273
 1299SOL    HW3 5227   1.880   0.048   2.260
 1299SOL    MW4 5228   1.808   0.092   2.236
 1300SOL     OW 5229   1.750   0.324   2.366
 1300SOL    HW2 5230   1.739   0.318   2.460
 1300SOL    HW3 5231   1.839   0.358   2.354
 1300SOL    MW4 5232   1.761   0.328   2.377
 1301SOL     OW 5233   1.979   0.469   2.292
 1301SOL    HW2 5234   2.023   0.547   2.327
 1301SOL    HW3 5235   1.968   0.487   2.199
 1301SOL    MW4 5236   1.983   0.482   2.284
 1302SOL     OW 5237   2.017   0.742   2.371
 1302SOL    HW2 5238   2.079   0.770   2.303
 1302SOL    HW3 5239   1.932   0.776   2.342
 1302SOL    MW4 5240   2.014   0.750   2.359
 1303SOL     OW 5241   1.803   0.850   2.228
 1303SOL    HW2 5242   1.822   0.939   2.258
 1303SOL    HW3 5243   1.831   0.849   2.136
 1303SOL    MW4 5244   1.809   0.862   2.220
 1304SOL     OW 5245   1.790   1.113   2.324
 1304SOL    HW2 5246   1.857   1.165   2.282
 1304SOL    HW3 5247   1.707   1.155   2.300
 1304SOL    MW4 5248   1.788   1.125   2.316
 1305SOL     OW 5249   2.018   1.283   2.287
 1305SOL    HW2 5250   2.036   1.371   2.319
 1305SOL    HW3 5251   2.009   1.294   2.192
 1305SOL    MW4 5252   2.019   1.296   2.278
 1306SOL     OW 5253   2.034   1.550   2.352
 1306SOL    HW2 5254   2.026   1.552   2.447
 1306SOL    HW3 5255   1.956   1.595   2.320
 1306SOL    MW4 5256   2.023   1.556   2.360
 1307SOL     OW 5257   1.810   1.667   2.260
 1307SOL    HW2 5258   1.799   1.759   2.285
 1307SOL    HW3 5259   1.824   1.669   2.166
 1307SOL    MW4 5260   1.811   1.679   2.251
 1308SOL     OW 5261   1.789   1.924   2.351
 1308SOL    HW2 5262   1.804   1.920   2.445
 1308SOL    HW3 5263   1.866   1.969   2.316
 1308SOL    MW4 5264   1.801   1.929   2.359
 1309SOL     OW 5265   2.002   2.078   2.242
 1309SOL    HW2 5266   2.078   2.040   2.285
 1309SOL    HW3 5267   2.022   2.073   2.148
 1309SOL    MW4 5268   2.014   2.072   2.235
 1310SOL     OW 5269   1.957   2.328   2.398
 1310SOL    HW2 5270   2.026   2.377   2.353
 1310SOL    HW3 5271   1.955   2.243   2.354
 1310SOL    MW4 5272   1.966   2.323   2.386
 1311SOL     OW 5273   1.758   2.463   2.230
 1311SOL    HW2 5274   1.819   2.406   2.276
 1311SOL    HW3 5275   1.671   2.429   2.253
 1311SOL    MW4 5276   1.754   2.451   2.239
 1312SOL     OW 5277   1.793   2.723   2.370
 1312SOL    HW2 5278   1.783   2.636   2.331
 1312SOL    HW3 5279   1.712   2.769   2.348
 1312SOL    MW4 5280   1.781   2.718   2.362
 1313SOL     OW 5281   2.021   2.851   2.239
 1313SOL    HW2 5282   2.090   2.797   2.278
 1313SOL    HW3 5283   1.939   2.812   2.270
 1313SOL    MW4 5284   2.019   2.839   2.248
 1314SOL     OW 5285   2.013   3.099   2.342
 1314SOL    HW2 5286   2.085   3.148   2.302
 1314SOL    HW3 5287   2.025   3.009   2.313
 1314SOL    MW4 5288   2.024   3.094   2.333
 1315SOL     OW 5289   1.825   3.271   2.242
 1315SOL    HW2 5290   1.893   3.233   2.297
 1315SOL    HW3 5291   1.747   3.218   2.260
 1315SOL    MW4 5292   1.823   3.259   2.252
 1316SOL     OW 5293   1.783   3.528   2.331
 1316SOL    HW2 5294   1.782   3.438   2.299
 1316SOL    HW3 5295   1.701   3.566   2.299
 1316SOL    MW4 5296   1.772   3.521   2.323
 1317SOL     OW 5297   2.026   3.654   2.257
 1317SOL    HW2 5298   1.941   3.615   2.275
 1317SOL    HW3 5299   2.041   3.638   2.163
 1317SOL    MW4 5300   2.017   3.647   2.247
 1318SOL     OW 5301   2.024   3.927   2.330
 1318SOL    HW2 5302   2.006   3.927   2.424
 1318SOL    HW3 5303   2.038   3.835   2.308
 1318SOL    MW4 5304   2.023   3.915   2.340
 1319SOL     OW 5305   1.814   4.015   2.214
 1319SOL    HW2 5306   1.889   3.969   2.251
 1319SOL    HW3 5307   1.818   3.996   2.120
 1319SOL    MW4 5308   1.824   4.007   2.206
 1320SOL     OW 5309   1.825   4.281   2.330
 1320SOL    HW2 5310   1.830   4.195   2.289
 1320SOL    HW3 5311   1.744   4.319   2.296
 1320SOL    MW4 5312   1.815   4.275   2.320
 1321SOL     OW 5313   2.064   4.402   2.220
 1321SOL    HW2 5314   1.985   4.363   2.258
 1321SOL    HW3 5315   2.038   4.427   2.132
 1321SOL    MW4 5316   2.050   4.400   2.214
 1322SOL     OW 5317   2.516   0.001   2.325
 1322SOL    HW2 5318   2.590   0.045   2.283
 1322SOL    HW3 5319   2.507  -0.082   2.277
 1322SOL    MW4 5320   2.524  -0.004   2.313
 1323SOL     OW 5321   2.277   0.105   2.234
 1323SOL    HW2 5322   2.265   0.192   2.271
 1323SOL    HW3 5323   2.357   0.072   2.275
 1323SOL    MW4 5324   2.286   0.112   2.244
 1324SOL     OW 5325   2.223   0.351   2.336
 1324SOL    HW2 5326   2.290   0.410   2.301
 1324SOL    HW3 5327   2.140   0.394   2.315
 1324SOL    MW4 5328   2.221   0.364   2.328
 1325SOL     OW 5329   2.458   0.478   2.259
 1325SOL    HW2 5330   2.534   0.443   2.304
 1325SOL    HW3 5331   2.474   0.462   2.166
 1325SOL    MW4 5332   2.470   0.471   2.253
 1326SOL     OW 5333   2.477   0.764   2.302
 1326SOL    HW2 5334   2.563   0.790   2.268
 1326SOL    HW3 5335   2.472   0.670   2.284
 1326SOL    MW4 5336   2.488   0.755   2.295
 1327SOL     OW 5337   2.224   0.852   2.230
 1327SOL    HW2 5338   2.222   0.947   2.241
 1327SOL    HW3 5339   2.314   0.828   2.251
 1327SOL    MW4 5340   2.235   0.862   2.234
 1328SOL     OW 5341   2.232   1.131   2.340
 1328SOL    HW2 5342   2.303   1.194   2.333
 1328SOL    HW3 5343   2.153   1.183   2.322
 1328SOL    MW4 5344   2.231   1.147   2.336
 1329SOL     OW 5345   2.472   1.297   2.273
 1329SOL    HW2 5346   2.545   1.242   2.301
 1329SOL    HW3 5347   2.489   1.382   2.314
 1329SOL    MW4 5348   2.484   1.301   2.282
 1330SOL     OW 5349   2.518   1.573   2.361
 1330SOL    HW2 5350   2.526   1.566   2.456
 1330SOL    HW3 5351   2.600   1.615   2.333
 1330SOL    MW4 5352   2.530   1.578   2.370
 1331SOL     OW 5353   2.275   1.670   2.261
 1331SOL    HW2 5354   2.353   1.647   2.311
 1331SOL    HW3 5355   2.203   1.627   2.308
 1331SOL    MW4 5356   2.276   1.661   2.274
 1332SOL     OW 5357   2.233   1.950   2.349
 1332SOL    HW2 5358   2.311   1.993   2.314
 1332SOL    HW3 5359   2.236   1.861   2.313
 1332SOL    MW4 5360   2.243   1.944   2.340
 1333SOL     OW 5361   2.451   2.097   2.257
 1333SOL    HW2 5362   2.523   2.041   2.285
 1333SOL    HW3 5363   2.452   2.091   2.162
 1333SOL    MW4 5364   2.460   2.088   2.248
 1334SOL     OW 5365   2.437   2.330   2.388
 1334SOL    HW2 5366   2.518   2.378   2.366
 1334SOL    HW3 5367   2.444   2.249   2.338
 1334SOL    MW4 5368   2.449   2.326   2.378
 1335SOL     OW 5369   2.202   2.451   2.273
 1335SOL    HW2 5370   2.206   2.543   2.297
 1335SOL    HW3 5371   2.282   2.414   2.309
 1335SOL    MW4 5372   2.213   2.458   2.281
 1336SOL     OW 5373   2.251   2.710   2.351
 1336SOL    HW2 5374   2.275   2.702   2.443
 1336SOL    HW3 5375   2.314   2.773   2.315
 1336SOL    MW4 5376   2.263   2.718   2.358
 1337SOL     OW 5377   2.451   2.873   2.259
 1337SOL    HW2 5378   2.528   2.833   2.298
 1337SOL    HW3 5379   2.453   2.846   2.167
 1337SOL    MW4 5380   2.461   2.864   2.252
 1338SOL     OW 5381   2.439   3.153   2.336
 1338SOL    HW2 5382   2.529   3.171   2.310
 1338SOL    HW3 5383   2.426   3.060   2.317
 1338SOL    MW4 5384   2.449   3.143   2.330
 1339SOL     OW 5385   2.209   3.256   2.232
 1339SOL    HW2 5386   2.204   3.343   2.272
 1339SOL    HW3 5387   2.293   3.221   2.262
 1339SOL    MW4 5388   2.220   3.263   2.241
 1340SOL     OW 5389   2.241   3.508   2.351
 1340SOL    HW2 5390   2.246   3.510   2.447
 1340SOL    HW3 5391   2.169   3.567   2.330
 1340SOL    MW4 5392   2.233   3.516   2.361
 1341SOL     OW 5393   2.479   3.582   2.220
 1341SOL    HW2 5394   2.482   3.673   2.249
 1341SOL    HW3 5395   2.401   3.546   2.262
 1341SOL    MW4 5396   2.469   3.589   2.229
 1342SOL     OW 5397   2.494   3.859   2.312
 1342SOL    HW2 5398   2.494   3.872   2.407
 1342SOL    HW3 5399   2.410   3.894   2.283
 1342SOL    MW4 5400   2.483   3.865   2.320
 1343SOL     OW 5401   2.266   3.980   2.221
 1343SOL    HW2 5402   2.276   4.072   2.249
 1343SOL    HW3 5403   2.183   3.953   2.258
 1343SOL    MW4 5404   2.257   3.989   2.230
 1344SOL     OW 5405   2.289   4.252   2.301
 1344SOL    HW2 5406   2.284   4.251   2.396
 1344SOL    HW3 5407   2.208   4.297   2.273
 1344SOL    MW4 5408   2.277   4.258   2.310
 1345SOL     OW 5409   2.507   4.397   2.217
 1345SOL    HW2 5410   2.587   4.350   2.243
 1345SOL    HW3 5411   2.436   4.337   2.237
 1345SOL    MW4 5412   2.508   4.383   2.223
 1346SOL     OW 5413   2.921   4.637   2.321
 1346SOL    HW2 5414   3.004   4.682   2.308
 1346SOL    HW3 5415   2.939   4.546   2.297
 1346SOL    MW4 5416   2.934   4.631   2.316
 1347SOL     OW 5417   2.730   0.118   2.191
 1347SOL    HW2 5418   2.721   0.201   2.239
 1347SOL    HW3 5419   2.800   0.072   2.237
 1347SOL    MW4 5420   2.738   0.123   2.204
 1348SOL     OW 5421   2.692   0.347   2.348
 1348SOL    HW2 5422   2.683   0.361   2.442
 1348SOL    HW3 5423   2.774   0.390   2.325
 1348SOL    MW4 5424   2.702   0.355   2.357
 1349SOL     OW 5425   2.930   0.455   2.268
 1349SOL    HW2 5426   2.943   0.546   2.293
 1349SOL    HW3 5427   2.912   0.459   2.174
 1349SOL    MW4 5428   2.929   0.467   2.259
 1350SOL     OW 5429   2.943   0.723   2.339
 1350SOL    HW2 5430   2.931   0.737   2.433
 1350SOL    HW3 5431   2.874   0.776   2.299
 1350SOL    MW4 5432   2.932   0.732   2.347
 1351SOL     OW 5433   2.733   0.864   2.239
 1351SOL    HW2 5434   2.737   0.947   2.287
 1351SOL    HW3 5435   2.750   0.889   2.148
 1351SOL    MW4 5436   2.736   0.878   2.233
 1352SOL     OW 5437   2.704   1.139   2.335
 1352SOL    HW2 5438   2.709   1.136   2.430
 1352SOL    HW3 5439   2.781   1.189   2.308
 1352SOL    MW4 5440   2.715   1.145   2.344
 1353SOL     OW 5441   2.934   1.281   2.259
 1353SOL    HW2 5442   3.012   1.239   2.296
 1353SOL    HW3 5443   2.956   1.297   2.167
 1353SOL    MW4 5444   2.947   1.277   2.252
 1354SOL     OW 5445   2.926   1.544   2.331
 1354SOL    HW2 5446   2.926   1.534   2.426
 1354SOL    HW3 5447   2.911   1.456   2.297
 1354SOL    MW4 5448   2.924   1.531   2.339
 1355SOL     OW 5449   2.731   1.720   2.255
 1355SOL    HW2 5450   2.813   1.673   2.269
 1355SOL    HW3 5451   2.709   1.702   2.164
 1355SOL    MW4 5452   2.739   1.712   2.245
 1356SOL     OW 5453   2.651   1.950   2.353
 1356SOL    HW2 5454   2.638   1.951   2.448
 1356SOL    HW3 5455   2.672   1.859   2.333
 1356SOL    MW4 5456   2.652   1.938   2.363
 1357SOL     OW 5457   2.873   2.067   2.250
 1357SOL    HW2 5458   2.948   2.028   2.296
 1357SOL    HW3 5459   2.797   2.020   2.284
 1357SOL    MW4 5460   2.873   2.056   2.260
 1358SOL     OW 5461   2.872   2.325   2.342
 1358SOL    HW2 5462   2.898   2.321   2.435
 1358SOL    HW3 5463   2.865   2.233   2.316
 1358SOL    MW4 5464   2.874   2.312   2.351
 1359SOL     OW 5465   2.643   2.460   2.295
 1359SOL    HW2 5466   2.731   2.424   2.311
 1359SOL    HW3 5467   2.631   2.451   2.200
 1359SOL    MW4 5468   2.653   2.454   2.284
 1360SOL     OW 5469   2.667   2.739   2.384
 1360SOL    HW2 5470   2.757   2.767   2.368
 1360SOL    HW3 5471   2.662   2.651   2.347
 1360SOL    MW4 5472   2.678   2.731   2.377
 1361SOL     OW 5473   2.921   2.827   2.310
 1361SOL    HW2 5474   2.904   2.918   2.336
 1361SOL    HW3 5475   2.918   2.828   2.215
 1361SOL    MW4 5476   2.919   2.839   2.301
 1362SOL     OW 5477   2.895   3.096   2.395
 1362SOL    HW2 5478   2.972   3.118   2.342
 1362SOL    HW3 5479   2.822   3.138   2.349
 1362SOL    MW4 5480   2.896   3.105   2.382
 1363SOL     OW 5481   2.693   3.207   2.245
 1363SOL    HW2 5482   2.701   3.297   2.275
 1363SOL    HW3 5483   2.701   3.212   2.150
 1363SOL    MW4 5484   2.695   3.220   2.237
 1364SOL     OW 5485   2.695   3.444   2.365
 1364SOL    HW2 5486   2.773   3.476   2.319
 1364SOL    HW3 5487   2.622   3.489   2.323
 1364SOL    MW4 5488   2.696   3.454   2.354
 1365SOL     OW 5489   2.897   3.588   2.225
 1365SOL    HW2 5490   2.986   3.558   2.241
 1365SOL    HW3 5491   2.892   3.673   2.268
 1365SOL    MW4 5492   2.908   3.595   2.233
 1366SOL     OW 5493   2.919   3.847   2.314
 1366SOL    HW2 5494   2.899   3.836   2.407
 1366SOL    HW3 5495   2.847   3.899   2.279
 1366SOL    MW4 5496   2.907   3.852   2.322
 1367SOL     OW 5497   2.721   4.001   2.212
 1367SOL    HW2 5498   2.638   3.956   2.228
 1367SOL    HW3 5499   2.723   4.016   2.118
 1367SOL    MW4 5500   2.711   3.997   2.202
 1368SOL     OW 5501   2.711   4.266   2.325
 1368SOL    HW2 5502   2.716   4.268   2.421
 1368SOL    HW3 5503   2.697   4.174   2.303
 1368SOL    MW4 5504   2.710   4.254   2.335
 1369SOL     OW 5505   2.923   4.383   2.190
 1369SOL    HW2 5506   2.996   4.337   2.232
 1369SOL    HW3 5507   2.846   4.354   2.238
 1369SOL    MW4 5508   2.923   4.373   2.202
 1370SOL     OW 5509   3.375   4.630   2.350
 1370SOL    HW2 5510   3.372   4.640   2.445
 1370SOL    HW3 5511   3.438   4.696   2.321
 1370SOL    MW4 5512   3.383   4.640   2.359
 1371SOL     OW 5513   3.159   0.113   2.274
 1371SOL    HW2 5514   3.181   0.205   2.287
 1371SOL    HW3 5515   3.227   0.065   2.322
 1371SOL    MW4 5516   3.171   0.119   2.282
 1372SOL     OW 5517   3.186   0.379   2.360
 1372SOL    HW2 5518   3.247   0.429   2.306
 1372SOL    HW3 5519   3.099   0.403   2.327
 1372SOL    MW4 5520   3.182   0.389   2.349
 1373SOL     OW 5521   3.382   0.522   2.238
 1373SOL    HW2 5522   3.467   0.489   2.268
 1373SOL    HW3 5523   3.381   0.500   2.145
 1373SOL    MW4 5524   3.393   0.515   2.230
 1374SOL     OW 5525   3.396   0.775   2.396
 1374SOL    HW2 5526   3.477   0.815   2.366
 1374SOL    HW3 5527   3.402   0.683   2.369
 1374SOL    MW4 5528   3.407   0.768   2.388
 1375SOL     OW 5529   3.173   0.907   2.292
 1375SOL    HW2 5530   3.256   0.874   2.326
 1375SOL    HW3 5531   3.107   0.852   2.335
 1375SOL    MW4 5532   3.175   0.895   2.302
 1376SOL     OW 5533   3.156   1.165   2.359
 1376SOL    HW2 5534   3.238   1.201   2.326
 1376SOL    HW3 5535   3.162   1.071   2.339
 1376SOL    MW4 5536   3.168   1.157   2.352
 1377SOL     OW 5537   3.384   1.284   2.255
 1377SOL    HW2 5538   3.460   1.232   2.282
 1377SOL    HW3 5539   3.397   1.369   2.298
 1377SOL    MW4 5540   3.396   1.288   2.264
 1378SOL     OW 5541   3.413   1.537   2.367
 1378SOL    HW2 5542   3.385   1.551   2.457
 1378SOL    HW3 5543   3.342   1.573   2.314
 1378SOL    MW4 5544   3.400   1.544   2.372
 1379SOL     OW 5545   3.184   1.673   2.276
 1379SOL    HW2 5546   3.157   1.759   2.307
 1379SOL    HW3 5547   3.103   1.622   2.273
 1379SOL    MW4 5548   3.170   1.677   2.280
 1380SOL     OW 5549   3.115   1.946   2.360
 1380SOL    HW2 5550   3.125   1.942   2.455
 1380SOL    HW3 5551   3.195   1.988   2.330
 1380SOL    MW4 5552   3.127   1.951   2.369
 1381SOL     OW 5553   3.325   2.074   2.240
 1381SOL    HW2 5554   3.408   2.033   2.264
 1381SOL    HW3 5555   3.322   2.067   2.144
 1381SOL    MW4 5556   3.335   2.068   2.230
 1382SOL     OW 5557   3.310   2.322   2.374
 1382SOL    HW2 5558   3.246   2.379   2.331
 1382SOL    HW3 5559   3.304   2.239   2.326
 1382SOL    MW4 5560   3.301   2.318   2.362
 1383SOL     OW 5561   3.091   2.476   2.250
 1383SOL    HW2 5562   3.092   2.551   2.309
 1383SOL    HW3 5563   3.021   2.420   2.284
 1383SOL    MW4 5564   3.082   2.479   2.262
 1384SOL     OW 5565   3.133   2.690   2.392
 1384SOL    HW2 5566   3.129   2.692   2.488
 1384SOL    HW3 5567   3.066   2.752   2.363
 1384SOL    MW4 5568   3.124   2.698   2.401
 1385SOL     OW 5569   3.378   2.772   2.322
 1385SOL    HW2 5570   3.366   2.858   2.362
 1385SOL    HW3 5571   3.294   2.727   2.336
 1385SOL    MW4 5572   3.365   2.778   2.329
 1386SOL     OW 5573   3.349   3.040   2.361
 1386SOL    HW2 5574   3.422   3.088   2.322
 1386SOL    HW3 5575   3.272   3.066   2.311
 1386SOL    MW4 5576   3.349   3.050   2.349
 1387SOL     OW 5577   3.131   3.200   2.248
 1387SOL    HW2 5578   3.146   3.287   2.284
 1387SOL    HW3 5579   3.154   3.207   2.156
 1387SOL    MW4 5580   3.136   3.212   2.241
 1388SOL     OW 5581   3.133   3.482   2.310
 1388SOL    HW2 5582   3.126   3.486   2.406
 1388SOL    HW3 5583   3.214   3.529   2.290
 1388SOL    MW4 5584   3.142   3.489   2.320
 1389SOL     OW 5585   3.371   3.601   2.241
 1389SOL    HW2 5586   3.449   3.553   2.269
 1389SOL    HW3 5587   3.364   3.582   2.148
 1389SOL    MW4 5588   3.380   3.592   2.232
 1390SOL     OW 5589   3.357   3.856   2.367
 1390SOL    HW2 5590   3.440   3.888   2.329
 1390SOL    HW3 5591   3.349   3.767   2.334
 1390SOL    MW4 5592   3.367   3.849   2.357
 1391SOL     OW 5593   3.147   4.017   2.276
 1391SOL    HW2 5594   3.221   3.969   2.314
 1391SOL    HW3 5595   3.070   3.968   2.304
 1391SOL    MW4 5596   3.147   4.004   2.285
 1392SOL     OW 5597   3.130   4.288   2.348
 1392SOL    HW2 5598   3.211   4.325   2.312
 1392SOL    HW3 5599   3.134   4.196   2.324
 1392SOL    MW4 5600   3.141   4.281   2.340
 1393SOL     OW 5601   3.354   4.366   2.226
 1393SOL    HW2 5602   3.369   4.453   2.262
 1393SOL    HW3 5603   3.379   4.374   2.134
 1393SOL    MW4 5604   3.359   4.379   2.218
 1394SOL     OW 5605   3.801   4.661   2.354
 1394SOL    HW2 5606   3.803   4.676   2.449
 1394SOL    HW3 5607   3.882   4.701   2.323
 1394SOL    MW4 5608   3.812   4.668   2.363
 1395SOL     OW 5609   3.574   0.136   2.240
 1395SOL    HW2 5610   3.574   0.226   2.272
 1395SOL    HW3 5611   3.656   0.099   2.271
 1395SOL    MW4 5612   3.585   0.143   2.248
 1396SOL     OW 5613   3.599   0.392   2.334
 1396SOL    HW2 5614   3.601   0.396   2.430
 1396SOL    HW3 5615   3.685   0.423   2.307
 1396SOL    MW4 5616   3.611   0.396   2.343
 1397SOL     OW 5617   3.852   0.481   2.257
 1397SOL    HW2 5618   3.871   0.567   2.294
 1397SOL    HW3 5619   3.853   0.495   2.162
 1397SOL    MW4 5620   3.855   0.494   2.249
 1398SOL     OW 5621   3.864   0.756   2.346
 1398SOL    HW2 5622   3.868   0.762   2.441
 1398SOL    HW3 5623   3.949   0.790   2.316
 1398SOL    MW4 5624   3.876   0.761   2.355
 1399SOL     OW 5625   3.627   0.867   2.266
 1399SOL    HW2 5626   3.718   0.852   2.290
 1399SOL    HW3 5627   3.623   0.844   2.173
 1399SOL    MW4 5628   3.639   0.862   2.257
 1400SOL     OW 5629   3.604   1.138   2.350
 1400SOL    HW2 5630   3.602   1.154   2.445
 1400SOL    HW3 5631   3.623   1.044   2.342
 1400SOL    MW4 5632   3.606   1.127   2.361
 1401SOL     OW 5633   3.830   1.243   2.250
 1401SOL    HW2 5634   3.818   1.334   2.278
 1401SOL    HW3 5635   3.752   1.198   2.282
 1401SOL    MW4 5636   3.818   1.249   2.258
 1402SOL     OW 5637   3.797   1.488   2.365
 1402SOL    HW2 5638   3.828   1.511   2.453
 1402SOL    HW3 5639   3.735   1.557   2.342
 1402SOL    MW4 5640   3.793   1.500   2.374
 1403SOL     OW 5641   3.624   1.689   2.282
 1403SOL    HW2 5642   3.548   1.644   2.320
 1403SOL    HW3 5643   3.611   1.683   2.187
 1403SOL    MW4 5644   3.612   1.683   2.274
 1404SOL     OW 5645   3.562   1.947   2.307
 1404SOL    HW2 5646   3.646   1.985   2.279
 1404SOL    HW3 5647   3.579   1.853   2.310
 1404SOL    MW4 5648   3.576   1.940   2.303
 1405SOL     OW 5649   3.802   2.042   2.208
 1405SOL    HW2 5650   3.893   2.014   2.218
 1405SOL    HW3 5651   3.787   2.044   2.113
 1405SOL    MW4 5652   3.812   2.038   2.197
 1406SOL     OW 5653   3.818   2.290   2.320
 1406SOL    HW2 5654   3.732   2.326   2.298
 1406SOL    HW3 5655   3.811   2.197   2.299
 1406SOL    MW4 5656   3.806   2.282   2.314
 1407SOL     OW 5657   3.573   2.406   2.298
 1407SOL    HW2 5658   3.482   2.390   2.321
 1407SOL    HW3 5659   3.574   2.404   2.202
 1407SOL    MW4 5660   3.561   2.403   2.288
 1408SOL     OW 5661   3.629   2.670   2.400
 1408SOL    HW2 5662   3.629   2.577   2.377
 1408SOL    HW3 5663   3.546   2.704   2.366
 1408SOL    MW4 5664   3.618   2.663   2.392
 1409SOL     OW 5665   3.819   2.818   2.243
 1409SOL    HW2 5666   3.819   2.903   2.287
 1409SOL    HW3 5667   3.770   2.761   2.303
 1409SOL    MW4 5668   3.812   2.821   2.257
 1410SOL     OW 5669   3.811   3.070   2.337
 1410SOL    HW2 5670   3.807   3.094   2.430
 1410SOL    HW3 5671   3.883   3.123   2.302
 1410SOL    MW4 5672   3.820   3.080   2.345
 1411SOL     OW 5673   3.565   3.179   2.264
 1411SOL    HW2 5674   3.568   3.269   2.297
 1411SOL    HW3 5675   3.654   3.147   2.277
 1411SOL    MW4 5676   3.577   3.187   2.270
 1412SOL     OW 5677   3.591   3.461   2.313
 1412SOL    HW2 5678   3.602   3.481   2.406
 1412SOL    HW3 5679   3.649   3.523   2.268
 1412SOL    MW4 5680   3.600   3.472   2.319
 1413SOL     OW 5681   3.779   3.657   2.217
 1413SOL    HW2 5682   3.804   3.741   2.256
 1413SOL    HW3 5683   3.782   3.672   2.123
 1413SOL    MW4 5684   3.783   3.670   2.210
 1414SOL     OW 5685   3.852   3.876   2.382
 1414SOL    HW2 5686   3.840   3.870   2.476
 1414SOL    HW3 5687   3.943   3.903   2.371
 1414SOL    MW4 5688   3.862   3.879   2.393
 1415SOL     OW 5689   3.606   3.974   2.278
 1415SOL    HW2 5690   3.605   4.067   2.299
 1415SOL    HW3 5691   3.692   3.943   2.305
 1415SOL    MW4 5692   3.617   3.982   2.284
 1416SOL     OW 5693   3.583   4.252   2.324
 1416SOL    HW2 5694   3.653   4.310   2.293
 1416SOL    HW3 5695   3.502   4.298   2.300
 1416SOL    MW4 5696   3.581   4.266   2.316
 1417SOL     OW 5697   3.809   4.393   2.240
 1417SOL    HW2 5698   3.883   4.350   2.284
 1417SOL    HW3 5699   3.807   4.481   2.276
 1417SOL    MW4 5700   3.819   4.399   2.250
 1418SOL     OW 5701   4.276   4.642   2.356
 1418SOL    HW2 5702   4.296   4.658   2.448
 1418SOL    HW3 5703   4.345   4.689   2.308
 1418SOL    MW4 5704   4.288   4.650   2.362
 1419SOL     OW 5705   4.050   0.092   2.273
 1419SOL    HW2 5706   4.048   0.182   2.305
 1419SOL    HW3 5707   4.133   0.056   2.306
 1419SOL    MW4 5708   4.061   0.099   2.281
 1420SOL     OW 5709   4.090   0.359   2.369
 1420SOL    HW2 5710   4.163   0.398   2.321
 1420SOL    HW3 5711   4.013   0.408   2.340
 1420SOL    MW4 5712   4.090   0.370   2.359
 1421SOL     OW 5713   4.302   0.469   2.225
 1421SOL    HW2 5714   4.295   0.560   2.255
 1421SOL    HW3 5715   4.377   0.434   2.272
 1421SOL    MW4 5716   4.311   0.477   2.235
 1422SOL     OW 5717   4.297   0.703   2.366
 1422SOL    HW2 5718   4.221   0.752   2.336
 1422SOL    HW3 5719   4.372   0.751   2.331
 1422SOL    MW4 5720   4.297   0.716   2.357
 1423SOL     OW 5721   4.093   0.862   2.255
 1423SOL    HW2 5722   4.075   0.951   2.285
 1423SOL    HW3 5723   4.081   0.865   2.160
 1423SOL    MW4 5724   4.089   0.874   2.247
 1424SOL     OW 5725   4.061   1.128   2.347
 1424SOL    HW2 5726   4.054   1.142   2.441
 1424SOL    HW3 5727   3.985   1.172   2.310
 1424SOL    MW4 5728   4.050   1.135   2.355
 1425SOL     OW 5729   4.250   1.301   2.249
 1425SOL    HW2 5730   4.184   1.239   2.283
 1425SOL    HW3 5731   4.333   1.256   2.261
 1425SOL    MW4 5732   4.252   1.287   2.255
 1426SOL     OW 5733   4.273   1.535   2.376
 1426SOL    HW2 5734   4.268   1.456   2.323
 1426SOL    HW3 5735   4.331   1.593   2.327
 1426SOL    MW4 5736   4.280   1.533   2.363
 1427SOL     OW 5737   4.036   1.653   2.299
 1427SOL    HW2 5738   4.110   1.607   2.339
 1427SOL    HW3 5739   3.961   1.597   2.316
 1427SOL    MW4 5740   4.036   1.640   2.307
 1428SOL     OW 5741   4.025   1.936   2.305
 1428SOL    HW2 5742   4.020   1.969   2.395
 1428SOL    HW3 5743   4.015   1.841   2.314
 1428SOL    MW4 5744   4.023   1.928   2.318
 1429SOL     OW 5745   4.271   2.058   2.238
 1429SOL    HW2 5746   4.272   2.142   2.283
 1429SOL    HW3 5747   4.184   2.022   2.253
 1429SOL    MW4 5748   4.260   2.064   2.246
 1430SOL     OW 5749   4.274   2.328   2.337
 1430SOL    HW2 5750   4.201   2.387   2.318
 1430SOL    HW3 5751   4.351   2.373   2.301
 1430SOL    MW4 5752   4.275   2.341   2.330
 1431SOL     OW 5753   4.030   2.413   2.221
 1431SOL    HW2 5754   4.009   2.505   2.238
 1431SOL    HW3 5755   3.952   2.365   2.249
 1431SOL    MW4 5756   4.017   2.419   2.227
 1432SOL     OW 5757   4.071   2.671   2.308
 1432SOL    HW2 5758   4.072   2.684   2.403
 1432SOL    HW3 5759   4.000   2.727   2.277
 1432SOL    MW4 5760   4.062   2.680   2.316
 1433SOL     OW 5761   4.274   2.848   2.262
 1433SOL    HW2 5762   4.207   2.781   2.279
 1433SOL    HW3 5763   4.351   2.817   2.310
 1433SOL    MW4 5764   4.275   2.835   2.271
 1434SOL     OW 5765   4.245   3.106   2.360
 1434SOL    HW2 5766   4.243   3.019   2.322
 1434SOL    HW3 5767   4.329   3.143   2.331
 1434SOL    MW4 5768   4.256   3.100   2.351
 1435SOL     OW 5769   4.008   3.248   2.252
 1435SOL    HW2 5770   3.995   3.340   2.272
 1435SOL    HW3 5771   4.093   3.226   2.292
 1435SOL    MW4 5772   4.018   3.257   2.260
 1436SOL     OW 5773   3.988   3.518   2.340
 1436SOL    HW2 5774   4.065   3.560   2.303
 1436SOL    HW3 5775   3.914   3.563   2.298
 1436SOL    MW4 5776   3.988   3.530   2.329
 1437SOL     OW 5777   4.234   3.587   2.270
 1437SOL    HW2 5778   4.263   3.677   2.285
 1437SOL    HW3 5779   4.264   3.566   2.181
 1437SOL    MW4 5780   4.242   3.596   2.260
 1438SOL     OW 5781   4.298   3.852   2.339
 1438SOL    HW2 5782   4.285   3.846   2.434
 1438SOL    HW3 5783   4.370   3.914   2.328
 1438SOL    MW4 5784   4.306   3.859   2.350
 1439SOL     OW 5785   4.076   4.012   2.281
 1439SOL    HW2 5786   4.163   3.974   2.281
 1439SOL    HW3 5787   4.040   3.990   2.195
 1439SOL    MW4 5788   4.083   4.004   2.269
 1440SOL     OW 5789   4.045   4.265   2.347
 1440SOL    HW2 5790   4.118   4.307   2.301
 1440SOL    HW3 5791   4.048   4.174   2.317
 1440SOL    MW4 5792   4.055   4.258   2.337
 1441SOL     OW 5793   4.272   4.399   2.239
 1441SOL    HW2 5794   4.272   4.483   2.284
 1441SOL    HW3 5795   4.347   4.351   2.276
 1441SOL    MW4 5796   4.282   4.404   2.249
 1442SOL     OW 5797   0.224   4.631   2.621
 1442SOL    HW2 5798   0.199   4.546   2.657
 1442SOL    HW3 5799   0.160   4.692   2.658
 1442SOL    MW4 5800   0.212   4.628   2.631
 1443SOL     OW 5801   0.035   0.122   2.726
 1443SOL    HW2 5802   0.031   0.117   2.821
 1443SOL    HW3 5803   0.011   0.213   2.706
 1443SOL    MW4 5804   0.031   0.134   2.736
 1444SOL     OW 5805   4.442   0.389   2.629
 1444SOL    HW2 5806   4.526   0.427   2.655
 1444SOL    HW3 5807   4.451   0.373   2.535
 1444SOL    MW4 5808   4.454   0.392   2.620
 1445SOL     OW 5809   0.201   0.502   2.671
 1445SOL    HW2 5810   0.202   0.504   2.767
 1445SOL    HW3 5811   0.285   0.463   2.647
 1445SOL    MW4 5812   0.212   0.497   2.680
 1446SOL     OW 5813   0.253   0.777   2.598
 1446SOL    HW2 5814   0.330   0.809   2.645
 1446SOL    HW3 5815   0.241   0.688   2.630
 1446SOL    MW4 5816   0.262   0.770   2.609
 1447SOL     OW 5817   0.039   0.892   2.708
 1447SOL    HW2 5818  -0.035   0.843   2.669
 1447SOL    HW3 5819   0.116   0.862   2.659
 1447SOL    MW4 5820   0.039   0.882   2.696
 1448SOL     OW 5821   4.489   1.143   2.622
 1448SOL    HW2 5822   4.575   1.185   2.630
 1448SOL    HW3 5823   4.503   1.052   2.648
 1448SOL    MW4 5824   4.502   1.137   2.627
 1449SOL     OW 5825   0.245   1.239   2.704
 1449SOL    HW2 5826   0.334   1.208   2.685
 1449SOL    HW3 5827   0.250   1.334   2.688
 1449SOL    MW4 5828   0.258   1.248   2.700
 1450SOL     OW 5829   0.196   1.525   2.608
 1450SOL    HW2 5830   0.265   1.580   2.646
 1450SOL    HW3 5831   0.114   1.565   2.639
 1450SOL    MW4 5832   0.194   1.538   2.617
 1451SOL     OW 5833   4.478   1.670   2.735
 1451SOL    HW2 5834   4.485   1.669   2.831
 1451SOL    HW3 5835   4.478   1.763   2.713
 1451SOL    MW4 5836   4.479   1.682   2.745
 1452SOL     OW 5837   4.462   1.941   2.644
 1452SOL    HW2 5838   4.553   1.968   2.661
 1452SOL    HW3 5839   4.460   1.924   2.550
 1452SOL    MW4 5840   4.474   1.942   2.634
 1453SOL     OW 5841   0.244   2.052   2.681
 1453SOL    HW2 5842   0.318   2.008   2.639
 1453SOL    HW3 5843   0.246   2.141   2.645
 1453SOL    MW4 5844   0.254   2.058   2.671
 1454SOL     OW 5845   0.234   2.344   2.633
 1454SOL    HW2 5846   0.307   2.401   2.658
 1454SOL    HW3 5847   0.160   2.377   2.684
 1454SOL    MW4 5848   0.234   2.356   2.643
 1455SOL     OW 5849   0.008   2.440   2.741
 1455SOL    HW2 5850   0.004   2.459   2.835
 1455SOL    HW3 5851  -0.080   2.407   2.719
 1455SOL    MW4 5852  -0.004   2.438   2.750
 1456SOL     OW 5853   0.019   2.693   2.620
 1456SOL    HW2 5854  -0.061   2.745   2.622
 1456SOL    HW3 5855  -0.005   2.611   2.662
 1456SOL    MW4 5856   0.005   2.689   2.626
 1457SOL     OW 5857   0.245   2.818   2.722
 1457SOL    HW2 5858   0.230   2.912   2.729
 1457SOL    HW3 5859   0.166   2.784   2.679
 1457SOL    MW4 5860   0.232   2.826   2.717
 1458SOL     OW 5861   0.241   3.097   2.698
 1458SOL    HW2 5862   0.322   3.137   2.729
 1458SOL    HW3 5863   0.240   3.114   2.604
 1458SOL    MW4 5864   0.251   3.105   2.690
 1459SOL     OW 5865   0.001   3.231   2.750
 1459SOL    HW2 5866  -0.070   3.191   2.700
 1459SOL    HW3 5867   0.078   3.178   2.728
 1459SOL    MW4 5868   0.002   3.219   2.741
 1460SOL     OW 5869   0.008   3.471   2.617
 1460SOL    HW2 5870   0.079   3.524   2.654
 1460SOL    HW3 5871   0.009   3.390   2.668
 1460SOL    MW4 5872   0.018   3.467   2.628
 1461SOL     OW 5873   0.201   3.625   2.745
 1461SOL    HW2 5874   0.194   3.628   2.841
 1461SOL    HW3 5875   0.281   3.575   2.729
 1461SOL    MW4 5876   0.211   3.619   2.756
 1462SOL     OW 5877   0.173   3.881   2.648
 1462SOL    HW2 5878   0.191   3.789   2.667
 1462SOL    HW3 5879   0.178   3.888   2.553
 1462SOL    MW4 5880   0.176   3.870   2.638
 1463SOL     OW 5881   4.441   4.020   2.744
 1463SOL    HW2 5882   4.458   4.111   2.721
 1463SOL    HW3 5883   4.509   3.970   2.698
 1463SOL    MW4 5884   4.452   4.025   2.735
 1464SOL     OW 5885   4.485   4.266   2.646
 1464SOL    HW2 5886   4.406   4.308   2.678
 1464SOL    HW3 5887   4.554   4.294   2.706
 1464SOL    MW4 5888   4.484   4.275   2.658
 1465SOL     OW 5889   0.202   4.397   2.762
 1465SOL    HW2 5890   0.205   4.396   2.858
 1465SOL    HW3 5891   0.277   4.344   2.735
 1465SOL    MW4 5892   0.212   4.390   2.771
 1466SOL     OW 5893   0.670   4.658   2.597
 1466SOL    HW2 5894   0.745   4.704   2.636
 1466SOL    HW3 5895   0.593   4.705   2.631
 1466SOL    MW4 5896   0.670   4.670   2.607
 1467SOL     OW 5897   0.445   0.110   2.704
 1467SOL    HW2 5898   0.448   0.111   2.799
 1467SOL    HW3 5899   0.372   0.052   2.682
 1467SOL    MW4 5900   0.436   0.102   2.714
 1468SOL     OW 5901   0.436   0.379   2.634
 1468SOL    HW2 5902   0.506   0.414   2.690
 1468SOL    HW3 5903   0.433   0.286   2.655
 1468SOL    MW4 5904   0.445   0.372   2.644
 1469SOL     OW 5905   0.660   0.519   2.752
 1469SOL    HW2 5906   0.657   0.522   2.848
 1469SOL    HW3 5907   0.722   0.449   2.732
 1469SOL    MW4 5908   0.668   0.510   2.762
 1470SOL     OW 5909   0.691   0.766   2.596
 1470SOL    HW2 5910   0.767   0.821   2.616
 1470SOL    HW3 5911   0.703   0.689   2.652
 1470SOL    MW4 5912   0.703   0.763   2.606
 1471SOL     OW 5913   0.468   0.875   2.730
 1471SOL    HW2 5914   0.469   0.967   2.704
 1471SOL    HW3 5915   0.547   0.838   2.691
 1471SOL    MW4 5916   0.478   0.883   2.721
 1472SOL     OW 5917   0.495   1.139   2.644
 1472SOL    HW2 5918   0.566   1.202   2.652
 1472SOL    HW3 5919   0.483   1.127   2.550
 1472SOL    MW4 5920   0.503   1.146   2.633
 1473SOL     OW 5921   0.708   1.316   2.721
 1473SOL    HW2 5922   0.726   1.285   2.810
 1473SOL    HW3 5923   0.780   1.283   2.669
 1473SOL    MW4 5924   0.720   1.307   2.726
 1474SOL     OW 5925   0.665   1.561   2.602
 1474SOL    HW2 5926   0.583   1.590   2.642
 1474SOL    HW3 5927   0.682   1.476   2.643
 1474SOL    MW4 5928   0.656   1.553   2.613
 1475SOL     OW 5929   0.425   1.651   2.732
 1475SOL    HW2 5930   0.447   1.652   2.826
 1475SOL    HW3 5931   0.417   1.743   2.709
 1475SOL    MW4 5932   0.427   1.663   2.742
 1476SOL     OW 5933   0.457   1.901   2.605
 1476SOL    HW2 5934   0.529   1.937   2.656
 1476SOL    HW3 5935   0.484   1.913   2.514
 1476SOL    MW4 5936   0.470   1.907   2.599
 1477SOL     OW 5937   0.687   2.022   2.708
 1477SOL    HW2 5938   0.693   2.037   2.803
 1477SOL    HW3 5939   0.777   2.004   2.682
 1477SOL    MW4 5940   0.700   2.022   2.717
 1478SOL     OW 5941   0.658   2.287   2.594
 1478SOL    HW2 5942   0.741   2.306   2.639
 1478SOL    HW3 5943   0.634   2.199   2.622
 1478SOL    MW4 5944   0.666   2.278   2.603
 1479SOL     OW 5945   0.477   2.465   2.738
 1479SOL    HW2 5946   0.480   2.553   2.699
 1479SOL    HW3 5947   0.542   2.415   2.688
 1479SOL    MW4 5948   0.486   2.470   2.726
 1480SOL     OW 5949   0.466   2.718   2.611
 1480SOL    HW2 5950   0.540   2.765   2.648
 1480SOL    HW3 5951   0.389   2.759   2.650
 1480SOL    MW4 5952   0.466   2.730   2.621
 1481SOL     OW 5953   0.677   2.828   2.749
 1481SOL    HW2 5954   0.663   2.831   2.843
 1481SOL    HW3 5955   0.680   2.919   2.722
 1481SOL    MW4 5956   0.675   2.840   2.758
 1482SOL     OW 5957   0.693   3.093   2.652
 1482SOL    HW2 5958   0.774   3.131   2.685
 1482SOL    HW3 5959   0.705   3.091   2.557
 1482SOL    MW4 5960   0.705   3.098   2.643
 1483SOL     OW 5961   0.482   3.244   2.750
 1483SOL    HW2 5962   0.483   3.226   2.844
 1483SOL    HW3 5963   0.549   3.187   2.713
 1483SOL    MW4 5964   0.491   3.235   2.758
 1484SOL     OW 5965   0.442   3.491   2.665
 1484SOL    HW2 5966   0.461   3.402   2.693
 1484SOL    HW3 5967   0.413   3.482   2.574
 1484SOL    MW4 5968   0.440   3.478   2.656
 1485SOL     OW 5969   0.676   3.615   2.711
 1485SOL    HW2 5970   0.672   3.609   2.807
 1485SOL    HW3 5971   0.598   3.568   2.681
 1485SOL    MW4 5972   0.666   3.608   2.720
 1486SOL     OW 5973   0.663   3.879   2.624
 1486SOL    HW2 5974   0.579   3.914   2.653
 1486SOL    HW3 5975   0.675   3.799   2.675
 1486SOL    MW4 5976   0.653   3.873   2.634
 1487SOL     OW 5977   0.432   4.006   2.738
 1487SOL    HW2 5978   0.424   4.095   2.705
 1487SOL    HW3 5979   0.354   3.961   2.705
 1487SOL    MW4 5980   0.421   4.012   2.730
 1488SOL     OW 5981   0.436   4.281   2.666
 1488SOL    HW2 5982   0.517   4.317   2.703
 1488SOL    HW3 5983   0.444   4.296   2.572
 1488SOL    MW4 5984   0.448   4.288   2.659
 1489SOL     OW 5985   0.667   4.424   2.739
 1489SOL    HW2 5986   0.748   4.390   2.700
 1489SOL    HW3 5987   0.651   4.506   2.692
 1489SOL    MW4 5988   0.676   4.431   2.728
 1490SOL     OW 5989   1.138   4.600   2.605
 1490SOL    HW2 5990   1.215   4.647   2.637
 1490SOL    HW3 5991   1.139   4.517   2.652
 1490SOL    MW4 5992   1.148   4.595   2.616
 1491SOL     OW 5993   0.912   0.086   2.690
 1491SOL    HW2 5994   0.918   0.086   2.786
 1491SOL    HW3 5995   0.984   0.029   2.662
 1491SOL    MW4 5996   0.922   0.079   2.699
 1492SOL     OW 5997   0.903   0.361   2.672
 1492SOL    HW2 5998   0.908   0.265   2.670
 1492SOL    HW3 5999   0.887   0.386   2.581
 1492SOL    MW4 6000   0.901   0.352   2.660
 1493SOL     OW 6001   1.133   0.492   2.718
 1493SOL    HW2 6002   1.119   0.576   2.676
 1493SOL    HW3 6003   1.057   0.439   2.693
 1493SOL    MW4 6004   1.122   0.496   2.709
 1494SOL     OW 6005   1.108   0.749   2.615
 1494SOL    HW2 6006   1.196   0.779   2.636
 1494SOL    HW3 6007   1.099   0.766   2.521
 1494SOL    MW4 6008   1.118   0.755   2.605
 1495SOL     OW 6009   0.909   0.906   2.708
 1495SOL    HW2 6010   0.904   0.904   2.804
 1495SOL    HW3 6011   0.994   0.867   2.688
 1495SOL    MW4 6012   0.919   0.900   2.718
 1496SOL     OW 6013   0.904   1.184   2.594
 1496SOL    HW2 6014   0.897   1.098   2.635
 1496SOL    HW3 6015   0.916   1.166   2.501
 1496SOL    MW4 6016   0.905   1.170   2.587
 1497SOL     OW 6017   1.132   1.292   2.684
 1497SOL    HW2 6018   1.102   1.383   2.679
 1497SOL    HW3 6019   1.063   1.243   2.639
 1497SOL    MW4 6020   1.119   1.298   2.677
 1498SOL     OW 6021   1.096   1.554   2.641
 1498SOL    HW2 6022   1.019   1.596   2.678
 1498SOL    HW3 6023   1.095   1.577   2.549
 1498SOL    MW4 6024   1.086   1.563   2.634
 1499SOL     OW 6025   0.885   1.692   2.715
 1499SOL    HW2 6026   0.886   1.683   2.810
 1499SOL    HW3 6027   0.807   1.643   2.687
 1499SOL    MW4 6028   0.875   1.685   2.724
 1500SOL     OW 6029   0.931   1.911   2.574
 1500SOL    HW2 6030   1.003   1.946   2.627
 1500SOL    HW3 6031   0.913   1.825   2.613
 1500SOL    MW4 6032   0.938   1.904   2.586
 1501SOL     OW 6033   1.139   2.043   2.690
 1501SOL    HW2 6034   1.227   2.012   2.671
 1501SOL    HW3 6035   1.145   2.138   2.681
 1501SOL    MW4 6036   1.151   2.052   2.687
 1502SOL     OW 6037   1.155   2.327   2.653
 1502SOL    HW2 6038   1.224   2.382   2.690
 1502SOL    HW3 6039   1.174   2.325   2.559
 1502SOL    MW4 6040   1.167   2.334   2.645
 1503SOL     OW 6041   0.884   2.414   2.702
 1503SOL    HW2 6042   0.884   2.509   2.689
 1503SOL    HW3 6043   0.971   2.386   2.675
 1503SOL    MW4 6044   0.895   2.423   2.697
 1504SOL     OW 6045   0.869   2.668   2.643
 1504SOL    HW2 6046   0.939   2.731   2.660
 1504SOL    HW3 6047   0.790   2.710   2.677
 1504SOL    MW4 6048   0.868   2.681   2.650
 1505SOL     OW 6049   1.083   2.832   2.696
 1505SOL    HW2 6050   1.106   2.825   2.788
 1505SOL    HW3 6051   1.159   2.795   2.650
 1505SOL    MW4 6052   1.096   2.826   2.702
 1506SOL     OW 6053   1.148   3.096   2.636
 1506SOL    HW2 6054   1.122   3.007   2.659
 1506SOL    HW3 6055   1.136   3.101   2.541
 1506SOL    MW4 6056   1.143   3.085   2.627
 1507SOL     OW 6057   0.919   3.208   2.751
 1507SOL    HW2 6058   0.903   3.286   2.699
 1507SOL    HW3 6059   1.006   3.179   2.723
 1507SOL    MW4 6060   0.928   3.215   2.741
 1508SOL     OW 6061   0.887   3.462   2.635
 1508SOL    HW2 6062   0.961   3.508   2.676
 1508SOL    HW3 6063   0.810   3.512   2.663
 1508SOL    MW4 6064   0.887   3.475   2.644
 1509SOL     OW 6065   1.102   3.599   2.733
 1509SOL    HW2 6066   1.101   3.626   2.825
 1509SOL    HW3 6067   1.100   3.681   2.684
 1509SOL    MW4 6068   1.102   3.613   2.739
 1510SOL     OW 6069   1.098   3.851   2.606
 1510SOL    HW2 6070   1.178   3.889   2.644
 1510SOL    HW3 6071   1.110   3.859   2.511
 1510SOL    MW4 6072   1.110   3.857   2.598
 1511SOL     OW 6073   0.893   4.008   2.734
 1511SOL    HW2 6074   0.958   3.963   2.679
 1511SOL    HW3 6075   0.809   3.970   2.707
 1511SOL    MW4 6076   0.890   3.997   2.723
 1512SOL     OW 6077   0.888   4.266   2.666
 1512SOL    HW2 6078   0.892   4.174   2.691
 1512SOL    HW3 6079   0.884   4.265   2.570
 1512SOL    MW4 6080   0.888   4.254   2.656
 1513SOL     OW 6081   1.144   4.351   2.720
 1513SOL    HW2 6082   1.137   4.378   2.812
 1513SOL    HW3 6083   1.055   4.327   2.695
 1513SOL    MW4 6084   1.131   4.351   2.729
 1514SOL     OW 6085   1.557   4.653   2.629
 1514SOL    HW2 6086   1.563   4.559   2.643
 1514SOL    HW3 6087   1.548   4.663   2.534
 1514SOL    MW4 6088   1.557   4.642   2.618
 1515SOL     OW 6089   1.335   0.094   2.714
 1515SOL    HW2 6090   1.349   0.186   2.696
 1515SOL    HW3 6091   1.419   0.052   2.697
 1515SOL    MW4 6092   1.348   0.100   2.710
 1516SOL     OW 6093   1.371   0.369   2.655
 1516SOL    HW2 6094   1.446   0.413   2.695
 1516SOL    HW3 6095   1.295   0.417   2.685
 1516SOL    MW4 6096   1.371   0.381   2.664
 1517SOL     OW 6097   1.593   0.503   2.756
 1517SOL    HW2 6098   1.642   0.440   2.704
 1517SOL    HW3 6099   1.582   0.578   2.699
 1517SOL    MW4 6100   1.598   0.504   2.742
 1518SOL     OW 6101   1.583   0.743   2.619
 1518SOL    HW2 6102   1.506   0.791   2.649
 1518SOL    HW3 6103   1.571   0.734   2.525
 1518SOL    MW4 6104   1.571   0.748   2.611
 1519SOL     OW 6105   1.361   0.888   2.690
 1519SOL    HW2 6106   1.338   0.892   2.783
 1519SOL    HW3 6107   1.344   0.976   2.657
 1519SOL    MW4 6108   1.355   0.900   2.698
 1520SOL     OW 6109   1.350   1.147   2.595
 1520SOL    HW2 6110   1.428   1.169   2.646
 1520SOL    HW3 6111   1.282   1.206   2.628
 1520SOL    MW4 6112   1.351   1.157   2.606
 1521SOL     OW 6113   1.576   1.247   2.727
 1521SOL    HW2 6114   1.586   1.250   2.822
 1521SOL    HW3 6115   1.661   1.216   2.695
 1521SOL    MW4 6116   1.589   1.243   2.735
 1522SOL     OW 6117   1.577   1.525   2.658
 1522SOL    HW2 6118   1.562   1.431   2.670
 1522SOL    HW3 6119   1.561   1.541   2.565
 1522SOL    MW4 6120   1.573   1.515   2.647
 1523SOL     OW 6121   1.341   1.673   2.721
 1523SOL    HW2 6122   1.420   1.621   2.706
 1523SOL    HW3 6123   1.269   1.617   2.692
 1523SOL    MW4 6124   1.342   1.659   2.716
 1524SOL     OW 6125   1.398   1.935   2.645
 1524SOL    HW2 6126   1.370   1.850   2.678
 1524SOL    HW3 6127   1.385   1.930   2.551
 1524SOL    MW4 6128   1.393   1.923   2.637
 1525SOL     OW 6129   1.631   2.107   2.740
 1525SOL    HW2 6130   1.699   2.050   2.704
 1525SOL    HW3 6131   1.549   2.061   2.721
 1525SOL    MW4 6132   1.629   2.093   2.733
 1526SOL     OW 6133   1.623   2.372   2.638
 1526SOL    HW2 6134   1.699   2.414   2.679
 1526SOL    HW3 6135   1.624   2.283   2.672
 1526SOL    MW4 6136   1.633   2.366   2.648
 1527SOL     OW 6137   1.373   2.478   2.744
 1527SOL    HW2 6138   1.352   2.554   2.690
 1527SOL    HW3 6139   1.448   2.437   2.700
 1527SOL    MW4 6140   1.380   2.482   2.731
 1528SOL     OW 6141   1.331   2.710   2.619
 1528SOL    HW2 6142   1.417   2.743   2.645
 1528SOL    HW3 6143   1.334   2.707   2.524
 1528SOL    MW4 6144   1.343   2.714   2.610
 1529SOL     OW 6145   1.568   2.811   2.703
 1529SOL    HW2 6146   1.560   2.816   2.798
 1529SOL    HW3 6147   1.660   2.791   2.687
 1529SOL    MW4 6148   1.579   2.809   2.714
 1530SOL     OW 6149   1.575   3.094   2.589
 1530SOL    HW2 6150   1.652   3.146   2.612
 1530SOL    HW3 6151   1.587   3.011   2.635
 1530SOL    MW4 6152   1.587   3.090   2.598
 1531SOL     OW 6153   1.378   3.238   2.733
 1531SOL    HW2 6154   1.452   3.202   2.685
 1531SOL    HW3 6155   1.301   3.192   2.699
 1531SOL    MW4 6156   1.377   3.227   2.722
 1532SOL     OW 6157   1.342   3.490   2.608
 1532SOL    HW2 6158   1.356   3.403   2.646
 1532SOL    HW3 6159   1.264   3.524   2.652
 1532SOL    MW4 6160   1.334   3.483   2.619
 1533SOL     OW 6161   1.528   3.640   2.750
 1533SOL    HW2 6162   1.617   3.609   2.730
 1533SOL    HW3 6163   1.471   3.576   2.707
 1533SOL    MW4 6164   1.532   3.628   2.742
 1534SOL     OW 6165   1.555   3.883   2.575
 1534SOL    HW2 6166   1.480   3.921   2.619
 1534SOL    HW3 6167   1.556   3.792   2.605
 1534SOL    MW4 6168   1.545   3.876   2.585
 1535SOL     OW 6169   1.344   3.983   2.690
 1535SOL    HW2 6170   1.350   3.997   2.785
 1535SOL    HW3 6171   1.346   4.071   2.653
 1535SOL    MW4 6172   1.345   3.996   2.698
 1536SOL     OW 6173   1.384   4.264   2.625
 1536SOL    HW2 6174   1.301   4.296   2.660
 1536SOL    HW3 6175   1.375   4.274   2.530
 1536SOL    MW4 6176   1.372   4.269   2.617
 1537SOL     OW 6177   1.594   4.405   2.716
 1537SOL    HW2 6178   1.595   4.409   2.812
 1537SOL    HW3 6179   1.522   4.345   2.696
 1537SOL    MW4 6180   1.584   4.397   2.726
 1538SOL     OW 6181   1.999   4.616   2.595
 1538SOL    HW2 6182   2.077   4.660   2.628
 1538SOL    HW3 6183   1.997   4.637   2.502
 1538SOL    MW4 6184   2.009   4.625   2.587
 1539SOL     OW 6185   1.801   0.068   2.737
 1539SOL    HW2 6186   1.871   0.014   2.701
 1539SOL    HW3 6187   1.720   0.024   2.710
 1539SOL    MW4 6188   1.799   0.055   2.728
 1540SOL     OW 6189   1.772   0.323   2.642
 1540SOL    HW2 6190   1.847   0.376   2.671
 1540SOL    HW3 6191   1.787   0.237   2.682
 1540SOL    MW4 6192   1.784   0.319   2.651
 1541SOL     OW 6193   2.026   0.445   2.704
 1541SOL    HW2 6194   2.112   0.403   2.700
 1541SOL    HW3 6195   2.045   0.539   2.698
 1541SOL    MW4 6196   2.040   0.452   2.703
 1542SOL     OW 6197   2.064   0.732   2.645
 1542SOL    HW2 6198   1.989   0.788   2.664
 1542SOL    HW3 6199   2.066   0.726   2.549
 1542SOL    MW4 6200   2.055   0.739   2.635
 1543SOL     OW 6201   1.819   0.879   2.714
 1543SOL    HW2 6202   1.812   0.965   2.674
 1543SOL    HW3 6203   1.743   0.831   2.681
 1543SOL    MW4 6204   1.808   0.884   2.704
 1544SOL     OW 6205   1.819   1.153   2.612
 1544SOL    HW2 6206   1.898   1.206   2.609
 1544SOL    HW3 6207   1.802   1.129   2.521
 1544SOL    MW4 6208   1.827   1.157   2.600
 1545SOL     OW 6209   2.052   1.271   2.698
 1545SOL    HW2 6210   2.070   1.299   2.788
 1545SOL    HW3 6211   2.135   1.234   2.668
 1545SOL    MW4 6212   2.066   1.270   2.706
 1546SOL     OW 6213   2.035   1.551   2.629
 1546SOL    HW2 6214   1.964   1.583   2.685
 1546SOL    HW3 6215   2.035   1.456   2.643
 1546SOL    MW4 6216   2.026   1.543   2.638
 1547SOL     OW 6217   1.826   1.671   2.770
 1547SOL    HW2 6218   1.821   1.681   2.865
 1547SOL    HW3 6219   1.751   1.615   2.748
 1547SOL    MW4 6220   1.815   1.665   2.780
 1548SOL     OW 6221   1.809   1.918   2.644
 1548SOL    HW2 6222   1.890   1.949   2.683
 1548SOL    HW3 6223   1.796   1.831   2.682
 1548SOL    MW4 6224   1.818   1.910   2.654
 1549SOL     OW 6225   2.052   2.028   2.744
 1549SOL    HW2 6226   2.057   2.029   2.839
 1549SOL    HW3 6227   2.043   2.120   2.719
 1549SOL    MW4 6228   2.051   2.040   2.753
 1550SOL     OW 6229   2.015   2.289   2.666
 1550SOL    HW2 6230   2.083   2.353   2.685
 1550SOL    HW3 6231   2.000   2.296   2.572
 1550SOL    MW4 6232   2.022   2.298   2.656
 1551SOL     OW 6233   1.843   2.483   2.760
 1551SOL    HW2 6234   1.831   2.474   2.855
 1551SOL    HW3 6235   1.910   2.417   2.738
 1551SOL    MW4 6236   1.851   2.473   2.770
 1552SOL     OW 6237   1.826   2.725   2.646
 1552SOL    HW2 6238   1.834   2.636   2.681
 1552SOL    HW3 6239   1.821   2.712   2.551
 1552SOL    MW4 6240   1.826   2.711   2.638
 1553SOL     OW 6241   2.048   2.855   2.741
 1553SOL    HW2 6242   2.112   2.788   2.718
 1553SOL    HW3 6243   1.964   2.818   2.713
 1553SOL    MW4 6244   2.045   2.841   2.734
 1554SOL     OW 6245   2.003   3.100   2.634
 1554SOL    HW2 6246   2.020   3.017   2.678
 1554SOL    HW3 6247   2.001   3.078   2.541
 1554SOL    MW4 6248   2.005   3.086   2.627
 1555SOL     OW 6249   1.774   3.251   2.696
 1555SOL    HW2 6250   1.762   3.341   2.667
 1555SOL    HW3 6251   1.858   3.225   2.660
 1555SOL    MW4 6252   1.783   3.259   2.687
 1556SOL     OW 6253   1.761   3.523   2.640
 1556SOL    HW2 6254   1.837   3.568   2.677
 1556SOL    HW3 6255   1.763   3.544   2.547
 1556SOL    MW4 6256   1.771   3.532   2.633
 1557SOL     OW 6257   2.007   3.657   2.696
 1557SOL    HW2 6258   1.990   3.645   2.790
 1557SOL    HW3 6259   2.097   3.628   2.684
 1557SOL    MW4 6260   2.016   3.652   2.707
 1558SOL     OW 6261   1.995   3.900   2.611
 1558SOL    HW2 6262   1.914   3.924   2.656
 1558SOL    HW3 6263   2.012   3.810   2.639
 1558SOL    MW4 6264   1.987   3.891   2.620
 1559SOL     OW 6265   1.758   3.992   2.720
 1559SOL    HW2 6266   1.759   4.077   2.676
 1559SOL    HW3 6267   1.687   3.944   2.677
 1559SOL    MW4 6268   1.749   3.997   2.708
 1560SOL     OW 6269   1.799   4.241   2.609
 1560SOL    HW2 6270   1.729   4.299   2.636
 1560SOL    HW3 6271   1.789   4.235   2.514
 1560SOL    MW4 6272   1.789   4.248   2.600
 1561SOL     OW 6273   2.034   4.353   2.696
 1561SOL    HW2 6274   1.953   4.307   2.674
 1561SOL    HW3 6275   2.023   4.440   2.659
 1561SOL    MW4 6276   2.022   4.358   2.688
 1562SOL     OW 6277   2.467   4.633   2.596
 1562SOL    HW2 6278   2.525   4.697   2.638
 1562SOL    HW3 6279   2.488   4.638   2.503
 1562SOL    MW4 6280   2.477   4.642   2.589
 1563SOL     OW 6281   2.221   0.057   2.680
 1563SOL    HW2 6282   2.240   0.068   2.774
 1563SOL    HW3 6283   2.300   0.015   2.645
 1563SOL    MW4 6284   2.234   0.053   2.688
 1564SOL     OW 6285   2.252   0.328   2.631
 1564SOL    HW2 6286   2.246   0.233   2.642
 1564SOL    HW3 6287   2.231   0.342   2.538
 1564SOL    MW4 6288   2.248   0.317   2.620
 1565SOL     OW 6289   2.460   0.481   2.733
 1565SOL    HW2 6290   2.442   0.568   2.697
 1565SOL    HW3 6291   2.393   0.424   2.694
 1565SOL    MW4 6292   2.449   0.485   2.723
 1566SOL     OW 6293   2.482   0.742   2.614
 1566SOL    HW2 6294   2.410   0.801   2.639
 1566SOL    HW3 6295   2.486   0.749   2.519
 1566SOL    MW4 6296   2.473   0.751   2.605
 1567SOL     OW 6297   2.284   0.900   2.735
 1567SOL    HW2 6298   2.285   0.885   2.829
 1567SOL    HW3 6299   2.213   0.845   2.703
 1567SOL    MW4 6300   2.275   0.891   2.743
 1568SOL     OW 6301   2.287   1.160   2.625
 1568SOL    HW2 6302   2.275   1.076   2.671
 1568SOL    HW3 6303   2.257   1.143   2.536
 1568SOL    MW4 6304   2.281   1.147   2.619
 1569SOL     OW 6305   2.530   1.278   2.736
 1569SOL    HW2 6306   2.594   1.221   2.693
 1569SOL    HW3 6307   2.445   1.249   2.703
 1569SOL    MW4 6308   2.527   1.267   2.726
 1570SOL     OW 6309   2.506   1.530   2.640
 1570SOL    HW2 6310   2.423   1.559   2.677
 1570SOL    HW3 6311   2.521   1.444   2.679
 1570SOL    MW4 6312   2.497   1.522   2.650
 1571SOL     OW 6313   2.280   1.637   2.726
 1571SOL    HW2 6314   2.280   1.720   2.678
 1571SOL    HW3 6315   2.194   1.599   2.707
 1571SOL    MW4 6316   2.269   1.643   2.717
 1572SOL     OW 6317   2.253   1.900   2.614
 1572SOL    HW2 6318   2.189   1.956   2.658
 1572SOL    HW3 6319   2.252   1.929   2.523
 1572SOL    MW4 6320   2.244   1.911   2.608
 1573SOL     OW 6321   2.429   2.030   2.794
 1573SOL    HW2 6322   2.430   2.113   2.747
 1573SOL    HW3 6323   2.381   1.970   2.737
 1573SOL    MW4 6324   2.423   2.033   2.780
 1574SOL     OW 6325   2.463   2.268   2.647
 1574SOL    HW2 6326   2.527   2.330   2.682
 1574SOL    HW3 6327   2.457   2.289   2.554
 1574SOL    MW4 6328   2.471   2.279   2.640
 1575SOL     OW 6329   2.258   2.436   2.718
 1575SOL    HW2 6330   2.245   2.438   2.813
 1575SOL    HW3 6331   2.336   2.381   2.706
 1575SOL    MW4 6332   2.267   2.429   2.729
 1576SOL     OW 6333   2.275   2.691   2.627
 1576SOL    HW2 6334   2.335   2.734   2.688
 1576SOL    HW3 6335   2.272   2.600   2.657
 1576SOL    MW4 6336   2.283   2.685   2.639
 1577SOL     OW 6337   2.452   2.853   2.769
 1577SOL    HW2 6338   2.537   2.815   2.744
 1577SOL    HW3 6339   2.448   2.935   2.720
 1577SOL    MW4 6340   2.463   2.859   2.759
 1578SOL     OW 6341   2.448   3.114   2.627
 1578SOL    HW2 6342   2.370   3.166   2.645
 1578SOL    HW3 6343   2.468   3.133   2.535
 1578SOL    MW4 6344   2.441   3.123   2.617
 1579SOL     OW 6345   2.234   3.250   2.712
 1579SOL    HW2 6346   2.235   3.245   2.807
 1579SOL    HW3 6347   2.165   3.188   2.685
 1579SOL    MW4 6348   2.225   3.241   2.721
 1580SOL     OW 6349   2.235   3.522   2.619
 1580SOL    HW2 6350   2.322   3.555   2.642
 1580SOL    HW3 6351   2.235   3.432   2.651
 1580SOL    MW4 6352   2.247   3.515   2.627
 1581SOL     OW 6353   2.513   3.634   2.745
 1581SOL    HW2 6354   2.497   3.629   2.839
 1581SOL    HW3 6355   2.496   3.725   2.723
 1581SOL    MW4 6356   2.508   3.645   2.755
 1582SOL     OW 6357   2.483   3.866   2.584
 1582SOL    HW2 6358   2.549   3.918   2.630
 1582SOL    HW3 6359   2.401   3.890   2.626
 1582SOL    MW4 6360   2.481   3.876   2.595
 1583SOL     OW 6361   2.245   3.965   2.681
 1583SOL    HW2 6362   2.236   3.971   2.776
 1583SOL    HW3 6363   2.160   3.933   2.651
 1583SOL    MW4 6364   2.232   3.961   2.690
 1584SOL     OW 6365   2.267   4.232   2.589
 1584SOL    HW2 6366   2.267   4.138   2.608
 1584SOL    HW3 6367   2.183   4.263   2.623
 1584SOL    MW4 6368   2.256   4.224   2.596
 1585SOL     OW 6369   2.452   4.378   2.704
 1585SOL    HW2 6370   2.380   4.334   2.660
 1585SOL    HW3 6371   2.458   4.464   2.662
 1585SOL    MW4 6372   2.444   4.384   2.693
 1586SOL     OW 6373   2.926   0.001   2.628
 1586SOL    HW2 6374   3.007   0.043   2.659
 1586SOL    HW3 6375   2.925   0.018   2.534
 1586SOL    MW4 6376   2.937   0.009   2.620
 1587SOL     OW 6377   2.675   0.113   2.715
 1587SOL    HW2 6378   2.679   0.130   2.809
 1587SOL    HW3 6379   2.761   0.075   2.694
 1587SOL    MW4 6380   2.687   0.110   2.725
 1588SOL     OW 6381   2.705   0.368   2.617
 1588SOL    HW2 6382   2.684   0.282   2.654
 1588SOL    HW3 6383   2.639   0.426   2.654
 1588SOL    MW4 6384   2.694   0.364   2.627
 1589SOL     OW 6385   2.938   0.493   2.723
 1589SOL    HW2 6386   2.921   0.578   2.682
 1589SOL    HW3 6387   2.870   0.436   2.688
 1589SOL    MW4 6388   2.927   0.497   2.713
 1590SOL     OW 6389   2.941   0.760   2.618
 1590SOL    HW2 6390   3.020   0.797   2.656
 1590SOL    HW3 6391   2.869   0.798   2.669
 1590SOL    MW4 6392   2.942   0.770   2.630
 1591SOL     OW 6393   2.726   0.878   2.725
 1591SOL    HW2 6394   2.714   0.881   2.820
 1591SOL    HW3 6395   2.652   0.825   2.693
 1591SOL    MW4 6396   2.714   0.871   2.733
 1592SOL     OW 6397   2.728   1.125   2.607
 1592SOL    HW2 6398   2.795   1.174   2.654
 1592SOL    HW3 6399   2.724   1.041   2.652
 1592SOL    MW4 6400   2.736   1.121   2.619
 1593SOL     OW 6401   2.943   1.243   2.746
 1593SOL    HW2 6402   2.953   1.242   2.841
 1593SOL    HW3 6403   3.023   1.203   2.712
 1593SOL    MW4 6404   2.955   1.238   2.754
 1594SOL     OW 6405   2.924   1.513   2.617
 1594SOL    HW2 6406   2.858   1.560   2.669
 1594SOL    HW3 6407   2.936   1.430   2.663
 1594SOL    MW4 6408   2.917   1.508   2.630
 1595SOL     OW 6409   2.715   1.672   2.731
 1595SOL    HW2 6410   2.717   1.640   2.821
 1595SOL    HW3 6411   2.638   1.631   2.693
 1595SOL    MW4 6412   2.705   1.662   2.738
 1596SOL     OW 6413   2.660   1.933   2.646
 1596SOL    HW2 6414   2.683   1.849   2.686
 1596SOL    HW3 6415   2.586   1.965   2.697
 1596SOL    MW4 6416   2.653   1.926   2.658
 1597SOL     OW 6417   2.902   2.059   2.720
 1597SOL    HW2 6418   2.903   2.151   2.693
 1597SOL    HW3 6419   2.814   2.029   2.699
 1597SOL    MW4 6420   2.891   2.067   2.714
 1598SOL     OW 6421   2.880   2.337   2.643
 1598SOL    HW2 6422   2.956   2.380   2.681
 1598SOL    HW3 6423   2.806   2.372   2.693
 1598SOL    MW4 6424   2.880   2.347   2.655
 1599SOL     OW 6425   2.665   2.449   2.769
 1599SOL    HW2 6426   2.664   2.457   2.865
 1599SOL    HW3 6427   2.657   2.539   2.737
 1599SOL    MW4 6428   2.664   2.462   2.778
 1600SOL     OW 6429   2.654   2.702   2.663
 1600SOL    HW2 6430   2.739   2.740   2.689
 1600SOL    HW3 6431   2.651   2.712   2.568
 1600SOL    MW4 6432   2.665   2.708   2.654
 1601SOL     OW 6433   2.870   2.817   2.790
 1601SOL    HW2 6434   2.863   2.836   2.884
 1601SOL    HW3 6435   2.863   2.903   2.748
 1601SOL    MW4 6436   2.868   2.831   2.797
 1602SOL     OW 6437   2.918   3.088   2.679
 1602SOL    HW2 6438   2.842   3.139   2.708
 1602SOL    HW3 6439   2.908   3.081   2.585
 1602SOL    MW4 6440   2.907   3.094   2.671
 1603SOL     OW 6441   2.693   3.226   2.741
 1603SOL    HW2 6442   2.693   3.320   2.724
 1603SOL    HW3 6443   2.611   3.195   2.703
 1603SOL    MW4 6444   2.682   3.234   2.734
 1604SOL     OW 6445   2.728   3.490   2.657
 1604SOL    HW2 6446   2.650   3.531   2.695
 1604SOL    HW3 6447   2.707   3.483   2.563
 1604SOL    MW4 6448   2.715   3.495   2.649
 1605SOL     OW 6449   2.944   3.627   2.696
 1605SOL    HW2 6450   2.960   3.638   2.790
 1605SOL    HW3 6451   2.862   3.578   2.691
 1605SOL    MW4 6452   2.935   3.622   2.708
 1606SOL     OW 6453   2.890   3.882   2.598
 1606SOL    HW2 6454   2.967   3.932   2.623
 1606SOL    HW3 6455   2.911   3.792   2.621
 1606SOL    MW4 6456   2.903   3.877   2.604
 1607SOL     OW 6457   2.669   3.994   2.722
 1607SOL    HW2 6458   2.692   4.084   2.698
 1607SOL    HW3 6459   2.731   3.940   2.674
 1607SOL    MW4 6460   2.680   3.999   2.713
 1608SOL     OW 6461   2.690   4.255   2.615
 1608SOL    HW2 6462   2.753   4.288   2.678
 1608SOL    HW3 6463   2.604   4.281   2.650
 1608SOL    MW4 6464   2.687   4.263   2.628
 1609SOL     OW 6465   2.901   4.389   2.748
 1609SOL    HW2 6466   2.914   4.389   2.843
 1609SOL    HW3 6467   2.889   4.481   2.725
 1609SOL    MW4 6468   2.901   4.401   2.758
 1610SOL     OW 6469   3.390   0.003   2.613
 1610SOL    HW2 6470   3.382  -0.089   2.636
 1610SOL    HW3 6471   3.315   0.045   2.655
 1610SOL    MW4 6472   3.379  -0.003   2.621
 1611SOL     OW 6473   3.171   0.107   2.719
 1611SOL    HW2 6474   3.174   0.098   2.815
 1611SOL    HW3 6475   3.168   0.201   2.704
 1611SOL    MW4 6476   3.171   0.118   2.730
 1612SOL     OW 6477   3.177   0.376   2.635
 1612SOL    HW2 6478   3.107   0.440   2.651
 1612SOL    HW3 6479   3.185   0.373   2.540
 1612SOL    MW4 6480   3.169   0.384   2.625
 1613SOL     OW 6481   3.393   0.483   2.786
 1613SOL    HW2 6482   3.386   0.568   2.743
 1613SOL    HW3 6483   3.316   0.434   2.756
 1613SOL    MW4 6484   3.382   0.487   2.776
 1614SOL     OW 6485   3.397   0.719   2.675
 1614SOL    HW2 6486   3.466   0.781   2.696
 1614SOL    HW3 6487   3.392   0.720   2.580
 1614SOL    MW4 6488   3.405   0.727   2.665
 1615SOL     OW 6489   3.177   0.890   2.712
 1615SOL    HW2 6490   3.174   0.902   2.807
 1615SOL    HW3 6491   3.259   0.844   2.696
 1615SOL    MW4 6492   3.187   0.885   2.722
 1616SOL     OW 6493   3.182   1.141   2.633
 1616SOL    HW2 6494   3.184   1.046   2.645
 1616SOL    HW3 6495   3.173   1.154   2.539
 1616SOL    MW4 6496   3.181   1.130   2.622
 1617SOL     OW 6497   3.376   1.293   2.729
 1617SOL    HW2 6498   3.379   1.290   2.824
 1617SOL    HW3 6499   3.299   1.242   2.705
 1617SOL    MW4 6500   3.366   1.286   2.738
 1618SOL     OW 6501   3.361   1.555   2.647
 1618SOL    HW2 6502   3.286   1.604   2.680
 1618SOL    HW3 6503   3.351   1.467   2.685
 1618SOL    MW4 6504   3.350   1.550   2.656
 1619SOL     OW 6505   3.127   1.656   2.726
 1619SOL    HW2 6506   3.104   1.743   2.694
 1619SOL    HW3 6507   3.063   1.598   2.685
 1619SOL    MW4 6508   3.115   1.660   2.716
 1620SOL     OW 6509   3.130   1.923   2.637
 1620SOL    HW2 6510   3.204   1.964   2.683
 1620SOL    HW3 6511   3.054   1.977   2.661
 1620SOL    MW4 6512   3.130   1.936   2.646
 1621SOL     OW 6513   3.362   2.055   2.710
 1621SOL    HW2 6514   3.368   2.058   2.806
 1621SOL    HW3 6515   3.364   2.147   2.683
 1621SOL    MW4 6516   3.363   2.068   2.719
 1622SOL     OW 6517   3.345   2.328   2.643
 1622SOL    HW2 6518   3.424   2.381   2.654
 1622SOL    HW3 6519   3.318   2.343   2.552
 1622SOL    MW4 6520   3.352   2.337   2.632
 1623SOL     OW 6521   3.122   2.432   2.770
 1623SOL    HW2 6522   3.131   2.522   2.741
 1623SOL    HW3 6523   3.197   2.387   2.730
 1623SOL    MW4 6524   3.133   2.438   2.761
 1624SOL     OW 6525   3.126   2.700   2.702
 1624SOL    HW2 6526   3.214   2.736   2.714
 1624SOL    HW3 6527   3.067   2.765   2.740
 1624SOL    MW4 6528   3.130   2.714   2.708
 1625SOL     OW 6529   3.365   2.822   2.724
 1625SOL    HW2 6530   3.356   2.849   2.815
 1625SOL    HW3 6531   3.458   2.802   2.715
 1625SOL    MW4 6532   3.376   2.823   2.735
 1626SOL     OW 6533   3.344   3.090   2.639
 1626SOL    HW2 6534   3.355   3.003   2.677
 1626SOL    HW3 6535   3.346   3.076   2.545
 1626SOL    MW4 6536   3.346   3.077   2.632
 1627SOL     OW 6537   3.140   3.251   2.724
 1627SOL    HW2 6538   3.210   3.190   2.701
 1627SOL    HW3 6539   3.060   3.209   2.692
 1627SOL    MW4 6540   3.139   3.237   2.717
 1628SOL     OW 6541   3.173   3.511   2.596
 1628SOL    HW2 6542   3.169   3.426   2.639
 1628SOL    HW3 6543   3.091   3.554   2.620
 1628SOL    MW4 6544   3.161   3.505   2.605
 1629SOL     OW 6545   3.392   3.633   2.698
 1629SOL    HW2 6546   3.386   3.619   2.792
 1629SOL    HW3 6547   3.324   3.577   2.661
 1629SOL    MW4 6548   3.383   3.624   2.705
 1630SOL     OW 6549   3.348   3.914   2.643
 1630SOL    HW2 6550   3.357   3.828   2.684
 1630SOL    HW3 6551   3.363   3.898   2.550
 1630SOL    MW4 6552   3.351   3.901   2.636
 1631SOL     OW 6553   3.115   4.036   2.683
 1631SOL    HW2 6554   3.131   4.129   2.666
 1631SOL    HW3 6555   3.197   3.993   2.659
 1631SOL    MW4 6556   3.128   4.043   2.678
 1632SOL     OW 6557   3.143   4.297   2.626
 1632SOL    HW2 6558   3.067   4.352   2.648
 1632SOL    HW3 6559   3.132   4.278   2.533
 1632SOL    MW4 6560   3.131   4.302   2.617
 1633SOL     OW 6561   3.391   4.397   2.703
 1633SOL    HW2 6562   3.397   4.394   2.799
 1633SOL    HW3 6563   3.310   4.351   2.683
 1633SOL    MW4 6564   3.381   4.391   2.713
 1634SOL     OW 6565   3.840   0.031   2.627
 1634SOL    HW2 6566   3.818  -0.061   2.640
 1634SOL    HW3 6567   3.771   0.079   2.672
 1634SOL    MW4 6568   3.828   0.025   2.634
 1635SOL     OW 6569   3.605   0.150   2.712
 1635SOL    HW2 6570   3.596   0.241   2.683
 1635SOL    HW3 6571   3.525   0.107   2.681
 1635SOL    MW4 6572   3.593   0.156   2.704
 1636SOL     OW 6573   3.615   0.423   2.621
 1636SOL    HW2 6574   3.693   0.433   2.675
 1636SOL    HW3 6575   3.546   0.466   2.671
 1636SOL    MW4 6576   3.616   0.430   2.635
 1637SOL     OW 6577   3.833   0.518   2.760
 1637SOL    HW2 6578   3.829   0.520   2.855
 1637SOL    HW3 6579   3.902   0.455   2.739
 1637SOL    MW4 6580   3.841   0.510   2.769
 1638SOL     OW 6581   3.860   0.752   2.608
 1638SOL    HW2 6582   3.781   0.803   2.620
 1638SOL    HW3 6583   3.844   0.671   2.657
 1638SOL    MW4 6584   3.848   0.748   2.616
 1639SOL     OW 6585   3.615   0.893   2.690
 1639SOL    HW2 6586   3.605   0.900   2.785
 1639SOL    HW3 6587   3.601   0.982   2.658
 1639SOL    MW4 6588   3.611   0.906   2.698
 1640SOL     OW 6589   3.590   1.182   2.617
 1640SOL    HW2 6590   3.662   1.243   2.634
 1640SOL    HW3 6591   3.512   1.228   2.647
 1640SOL    MW4 6592   3.589   1.196   2.623
 1641SOL     OW 6593   3.818   1.294   2.703
 1641SOL    HW2 6594   3.900   1.252   2.678
 1641SOL    HW3 6595   3.829   1.385   2.676
 1641SOL    MW4 6596   3.830   1.301   2.696
 1642SOL     OW 6597   3.847   1.560   2.652
 1642SOL    HW2 6598   3.916   1.619   2.682
 1642SOL    HW3 6599   3.766   1.603   2.679
 1642SOL    MW4 6600   3.846   1.573   2.660
 1643SOL     OW 6601   3.600   1.674   2.714
 1643SOL    HW2 6602   3.588   1.760   2.674
 1643SOL    HW3 6603   3.519   1.627   2.695
 1643SOL    MW4 6604   3.588   1.679   2.706
 1644SOL     OW 6605   3.578   1.930   2.586
 1644SOL    HW2 6606   3.501   1.981   2.612
 1644SOL    HW3 6607   3.581   1.938   2.491
 1644SOL    MW4 6608   3.568   1.937   2.577
 1645SOL     OW 6609   3.807   2.033   2.715
 1645SOL    HW2 6610   3.882   1.993   2.671
 1645SOL    HW3 6611   3.731   2.000   2.667
 1645SOL    MW4 6612   3.807   2.024   2.703
 1646SOL     OW 6613   3.800   2.309   2.600
 1646SOL    HW2 6614   3.803   2.220   2.635
 1646SOL    HW3 6615   3.783   2.297   2.506
 1646SOL    MW4 6616   3.798   2.296   2.592
 1647SOL     OW 6617   3.590   2.453   2.706
 1647SOL    HW2 6618   3.578   2.445   2.801
 1647SOL    HW3 6619   3.660   2.392   2.686
 1647SOL    MW4 6620   3.598   2.444   2.716
 1648SOL     OW 6621   3.623   2.742   2.678
 1648SOL    HW2 6622   3.611   2.648   2.690
 1648SOL    HW3 6623   3.633   2.753   2.583
 1648SOL    MW4 6624   3.623   2.731   2.667
 1649SOL     OW 6625   3.852   2.864   2.715
 1649SOL    HW2 6626   3.907   2.817   2.652
 1649SOL    HW3 6627   3.769   2.817   2.713
 1649SOL    MW4 6628   3.848   2.852   2.706
 1650SOL     OW 6629   3.795   3.119   2.611
 1650SOL    HW2 6630   3.723   3.162   2.657
 1650SOL    HW3 6631   3.806   3.036   2.658
 1650SOL    MW4 6632   3.787   3.113   2.623
 1651SOL     OW 6633   3.566   3.255   2.705
 1651SOL    HW2 6634   3.563   3.341   2.662
 1651SOL    HW3 6635   3.492   3.207   2.668
 1651SOL    MW4 6636   3.556   3.260   2.694
 1652SOL     OW 6637   3.603   3.493   2.586
 1652SOL    HW2 6638   3.675   3.540   2.628
 1652SOL    HW3 6639   3.525   3.539   2.613
 1652SOL    MW4 6640   3.602   3.505   2.595
 1653SOL     OW 6641   3.813   3.593   2.722
 1653SOL    HW2 6642   3.893   3.566   2.678
 1653SOL    HW3 6643   3.805   3.687   2.703
 1653SOL    MW4 6644   3.823   3.602   2.714
 1654SOL     OW 6645   3.809   3.867   2.667
 1654SOL    HW2 6646   3.872   3.939   2.674
 1654SOL    HW3 6647   3.724   3.909   2.680
 1654SOL    MW4 6648   3.806   3.882   2.670
 1655SOL     OW 6649   3.577   4.007   2.743
 1655SOL    HW2 6650   3.604   4.089   2.703
 1655SOL    HW3 6651   3.485   3.997   2.717
 1655SOL    MW4 6652   3.568   4.016   2.734
 1656SOL     OW 6653   3.598   4.241   2.606
 1656SOL    HW2 6654   3.536   4.300   2.650
 1656SOL    HW3 6655   3.573   4.245   2.513
 1656SOL    MW4 6656   3.586   4.250   2.599
 1657SOL     OW 6657   3.803   4.432   2.673
 1657SOL    HW2 6658   3.887   4.388   2.656
 1657SOL    HW3 6659   3.737   4.365   2.656
 1657SOL    MW4 6660   3.805   4.417   2.668
 1658SOL     OW 6661   4.311   4.654   2.620
 1658SOL    HW2 6662   4.237   4.688   2.671
 1658SOL    HW3 6663   4.386   4.706   2.650
 1658SOL    MW4 6664   4.311   4.666   2.630
 1659SOL     OW 6665   4.077   0.095   2.733
 1659SOL    HW2 6666   4.062   0.092   2.827
 1659SOL    HW3 6667   3.994   0.065   2.695
 1659SOL    MW4 6668   4.064   0.091   2.740
 1660SOL     OW 6669   4.039   0.370   2.657
 1660SOL    HW2 6670   4.069   0.285   2.691
 1660SOL    HW3 6671   4.049   0.363   2.562
 1660SOL    MW4 6672   4.044   0.358   2.649
 1661SOL     OW 6673   4.246   0.542   2.749
 1661SOL    HW2 6674   4.159   0.509   2.725
 1661SOL    HW3 6675   4.306   0.485   2.702
 1661SOL    MW4 6676   4.242   0.530   2.740
 1662SOL     OW 6677   4.289   0.787   2.632
 1662SOL    HW2 6678   4.290   0.704   2.680
 1662SOL    HW3 6679   4.300   0.762   2.540
 1662SOL    MW4 6680   4.290   0.773   2.626
 1663SOL     OW 6681   4.067   0.893   2.720
 1663SOL    HW2 6682   4.150   0.856   2.692
 1663SOL    HW3 6683   4.001   0.844   2.672
 1663SOL    MW4 6684   4.069   0.882   2.710
 1664SOL     OW 6685   4.035   1.147   2.626
 1664SOL    HW2 6686   4.118   1.180   2.660
 1664SOL    HW3 6687   4.036   1.054   2.646
 1664SOL    MW4 6688   4.046   1.139   2.633
 1665SOL     OW 6689   4.256   1.273   2.746
 1665SOL    HW2 6690   4.245   1.362   2.713
 1665SOL    HW3 6691   4.341   1.246   2.712
 1665SOL    MW4 6692   4.266   1.281   2.737
 1666SOL     OW 6693   4.269   1.521   2.658
 1666SOL    HW2 6694   4.348   1.568   2.684
 1666SOL    HW3 6695   4.276   1.512   2.563
 1666SOL    MW4 6696   4.280   1.526   2.649
 1667SOL     OW 6697   4.067   1.712   2.724
 1667SOL    HW2 6698   4.072   1.708   2.819
 1667SOL    HW3 6699   4.145   1.666   2.693
 1667SOL    MW4 6700   4.078   1.706   2.732
 1668SOL     OW 6701   4.028   1.948   2.592
 1668SOL    HW2 6702   4.102   1.995   2.630
 1668SOL    HW3 6703   4.034   1.859   2.629
 1668SOL    MW4 6704   4.039   1.942   2.602
 1669SOL     OW 6705   4.235   2.084   2.718
 1669SOL    HW2 6706   4.251   2.174   2.688
 1669SOL    HW3 6707   4.315   2.037   2.693
 1669SOL    MW4 6708   4.248   2.090   2.711
 1670SOL     OW 6709   4.274   2.345   2.608
 1670SOL    HW2 6710   4.186   2.381   2.619
 1670SOL    HW3 6711   4.283   2.334   2.513
 1670SOL    MW4 6712   4.264   2.348   2.597
 1671SOL     OW 6713   4.019   2.467   2.666
 1671SOL    HW2 6714   4.021   2.449   2.760
 1671SOL    HW3 6715   3.953   2.407   2.631
 1671SOL    MW4 6716   4.011   2.457   2.674
 1672SOL     OW 6717   4.038   2.724   2.572
 1672SOL    HW2 6718   4.108   2.771   2.617
 1672SOL    HW3 6719   4.036   2.638   2.614
 1672SOL    MW4 6720   4.047   2.719   2.584
 1673SOL     OW 6721   4.278   2.839   2.693
 1673SOL    HW2 6722   4.258   2.827   2.786
 1673SOL    HW3 6723   4.260   2.931   2.676
 1673SOL    MW4 6724   4.273   2.849   2.703
 1674SOL     OW 6725   4.287   3.121   2.623
 1674SOL    HW2 6726   4.207   3.161   2.656
 1674SOL    HW3 6727   4.273   3.111   2.529
 1674SOL    MW4 6728   4.275   3.125   2.615
 1675SOL     OW 6729   4.045   3.238   2.699
 1675SOL    HW2 6730   4.039   3.324   2.658
 1675SOL    HW3 6731   3.966   3.192   2.670
 1675SOL    MW4 6732   4.034   3.243   2.690
 1676SOL     OW 6733   4.049   3.495   2.601
 1676SOL    HW2 6734   4.137   3.532   2.615
 1676SOL    HW3 6735   4.030   3.513   2.509
 1676SOL    MW4 6736   4.058   3.502   2.591
 1677SOL     OW 6737   4.288   3.621   2.704
 1677SOL    HW2 6738   4.273   3.603   2.797
 1677SOL    HW3 6739   4.366   3.570   2.682
 1677SOL    MW4 6740   4.296   3.612   2.713
 1678SOL     OW 6741   4.246   3.881   2.598
 1678SOL    HW2 6742   4.246   3.792   2.633
 1678SOL    HW3 6743   4.325   3.921   2.635
 1678SOL    MW4 6744   4.257   3.875   2.607
 1679SOL     OW 6745   4.030   4.048   2.696
 1679SOL    HW2 6746   4.026   4.035   2.791
 1679SOL    HW3 6747   4.096   3.986   2.666
 1679SOL    MW4 6748   4.038   4.038   2.705
 1680SOL     OW 6749   4.045   4.318   2.615
 1680SOL    HW2 6750   4.057   4.232   2.654
 1680SOL    HW3 6751   4.038   4.301   2.521
 1680SOL    MW4 6752   4.046   4.304   2.608
 1681SOL     OW 6753   4.270   4.415   2.730
 1681SOL    HW2 6754   4.194   4.385   2.682
 1681SOL    HW3 6755   4.290   4.501   2.693
 1681SOL    MW4 6756   4.263   4.423   2.719
 1682SOL     OW 6757   0.233   4.663   3.127
 1682SOL    HW2 6758   0.228   4.650   3.221
 1682SOL    HW3 6759   0.159   4.722   3.107
 1682SOL    MW4 6760   0.222   4.669   3.137
 1683SOL     OW 6761   4.484   0.118   3.020
 1683SOL    HW2 6762   4.401   0.077   3.045
 1683SOL    HW3 6763   4.474   0.210   3.043
 1683SOL    MW4 6764   4.472   0.124   3.026
 1684SOL     OW 6765   4.464   0.396   3.112
 1684SOL    HW2 6766   4.469   0.384   3.207
 1684SOL    HW3 6767   4.384   0.447   3.098
 1684SOL    MW4 6768   4.454   0.401   3.123
 1685SOL     OW 6769   0.192   0.462   2.959
 1685SOL    HW2 6770   0.263   0.423   3.010
 1685SOL    HW3 6771   0.113   0.443   3.010
 1685SOL    MW4 6772   0.191   0.455   2.972
 1686SOL     OW 6773   0.247   0.717   3.043
 1686SOL    HW2 6774   0.213   0.692   3.129
 1686SOL    HW3 6775   0.242   0.637   2.991
 1686SOL    MW4 6776   0.242   0.703   3.048
 1687SOL     OW 6777   0.029   0.912   3.003
 1687SOL    HW2 6778   0.103   0.858   3.030
 1687SOL    HW3 6779   0.026   0.902   2.907
 1687SOL    MW4 6780   0.038   0.903   2.994
 1688SOL     OW 6781   0.007   1.155   3.129
 1688SOL    HW2 6782  -0.078   1.194   3.105
 1688SOL    HW3 6783   0.005   1.068   3.088
 1688SOL    MW4 6784  -0.005   1.149   3.120
 1689SOL     OW 6785   0.226   1.241   2.985
 1689SOL    HW2 6786   0.148   1.214   3.034
 1689SOL    HW3 6787   0.198   1.237   2.893
 1689SOL    MW4 6788   0.212   1.237   2.979
 1690SOL     OW 6789   0.239   1.488   3.069
 1690SOL    HW2 6790   0.148   1.513   3.053
 1690SOL    HW3 6791   0.243   1.395   3.046
 1690SOL    MW4 6792   0.228   1.479   3.063
 1691SOL     OW 6793   4.487   1.643   3.014
 1691SOL    HW2 6794   4.411   1.617   3.066
 1691SOL    HW3 6795   4.501   1.735   3.036
 1691SOL    MW4 6796   4.479   1.652   3.024
 1692SOL     OW 6797   0.006   1.906   3.066
 1692SOL    HW2 6798  -0.070   1.962   3.048
 1692SOL    HW3 6799   0.081   1.966   3.062
 1692SOL    MW4 6800   0.006   1.922   3.063
 1693SOL     OW 6801   0.255   2.039   2.973
 1693SOL    HW2 6802   0.243   2.124   3.015
 1693SOL    HW3 6803   0.246   2.058   2.879
 1693SOL    MW4 6804   0.252   2.053   2.966
 1694SOL     OW 6805   0.241   2.296   3.088
 1694SOL    HW2 6806   0.257   2.305   3.182
 1694SOL    HW3 6807   0.312   2.345   3.047
 1694SOL    MW4 6808   0.252   2.303   3.095
 1695SOL     OW 6809   4.480   2.448   3.011
 1695SOL    HW2 6810   4.486   2.543   3.019
 1695SOL    HW3 6811   4.565   2.416   3.041
 1695SOL    MW4 6812   4.492   2.456   3.016
 1696SOL     OW 6813   4.484   2.708   3.091
 1696SOL    HW2 6814   4.495   2.691   3.184
 1696SOL    HW3 6815   4.568   2.745   3.063
 1696SOL    MW4 6816   4.497   2.711   3.099
 1697SOL     OW 6817   0.228   2.820   2.984
 1697SOL    HW2 6818   0.315   2.803   3.020
 1697SOL    HW3 6819   0.238   2.812   2.890
 1697SOL    MW4 6820   0.241   2.817   2.977
 1698SOL     OW 6821   0.183   3.078   3.098
 1698SOL    HW2 6822   0.100   3.116   3.070
 1698SOL    HW3 6823   0.174   2.985   3.080
 1698SOL    MW4 6824   0.171   3.071   3.092
 1699SOL     OW 6825   4.434   3.214   3.031
 1699SOL    HW2 6826   4.357   3.159   3.050
 1699SOL    HW3 6827   4.435   3.221   2.936
 1699SOL    MW4 6828   4.424   3.208   3.021
 1700SOL     OW 6829   4.453   3.479   3.130
 1700SOL    HW2 6830   4.383   3.522   3.081
 1700SOL    HW3 6831   4.445   3.386   3.105
 1700SOL    MW4 6832   4.442   3.472   3.120
 1701SOL     OW 6833   0.189   3.615   3.029
 1701SOL    HW2 6834   0.202   3.698   3.074
 1701SOL    HW3 6835   0.118   3.573   3.077
 1701SOL    MW4 6836   0.181   3.620   3.041
 1702SOL     OW 6837   0.212   3.886   3.122
 1702SOL    HW2 6838   0.228   3.891   3.217
 1702SOL    HW3 6839   0.294   3.916   3.083
 1702SOL    MW4 6840   0.225   3.891   3.130
 1703SOL     OW 6841   4.456   4.000   3.034
 1703SOL    HW2 6842   4.539   3.959   3.058
 1703SOL    HW3 6843   4.460   4.007   2.938
 1703SOL    MW4 6844   4.468   3.995   3.024
 1704SOL     OW 6845   0.021   4.262   3.115
 1704SOL    HW2 6846   0.027   4.254   3.211
 1704SOL    HW3 6847   0.005   4.173   3.085
 1704SOL    MW4 6848   0.019   4.249   3.124
 1705SOL     OW 6849   0.230   4.402   3.031
 1705SOL    HW2 6850   0.159   4.349   3.069
 1705SOL    HW3 6851   0.210   4.491   3.058
 1705SOL    MW4 6852   0.218   4.407   3.040
 1706SOL     OW 6853   0.695   4.619   3.121
 1706SOL    HW2 6854   0.707   4.531   3.086
 1706SOL    HW3 6855   0.615   4.650   3.078
 1706SOL    MW4 6856   0.686   4.611   3.111
 1707SOL     OW 6857   0.474   0.062   2.975
 1707SOL    HW2 6858   0.465   0.148   3.014
 1707SOL    HW3 6859   0.398   0.013   3.007
 1707SOL    MW4 6860   0.463   0.067   2.984
 1708SOL     OW 6861   0.417   0.314   3.059
 1708SOL    HW2 6862   0.419   0.315   3.155
 1708SOL    HW3 6863   0.493   0.367   3.034
 1708SOL    MW4 6864   0.427   0.321   3.068
 1709SOL     OW 6865   0.622   0.477   3.020
 1709SOL    HW2 6866   0.702   0.428   3.039
 1709SOL    HW3 6867   0.635   0.561   3.065
 1709SOL    MW4 6868   0.635   0.482   3.029
 1710SOL     OW 6869   0.669   0.736   3.083
 1710SOL    HW2 6870   0.671   0.751   3.178
 1710SOL    HW3 6871   0.584   0.770   3.055
 1710SOL    MW4 6872   0.658   0.742   3.092
 1711SOL     OW 6873   0.446   0.878   3.005
 1711SOL    HW2 6874   0.368   0.825   3.023
 1711SOL    HW3 6875   0.450   0.883   2.909
 1711SOL    MW4 6876   0.436   0.872   2.995
 1712SOL     OW 6877   0.482   1.156   3.101
 1712SOL    HW2 6878   0.491   1.065   3.075
 1712SOL    HW3 6879   0.399   1.185   3.064
 1712SOL    MW4 6880   0.473   1.148   3.093
 1713SOL     OW 6881   0.733   1.249   2.977
 1713SOL    HW2 6882   0.805   1.203   3.019
 1713SOL    HW3 6883   0.655   1.202   3.003
 1713SOL    MW4 6884   0.733   1.237   2.986
 1714SOL     OW 6885   0.686   1.517   3.083
 1714SOL    HW2 6886   0.700   1.518   3.177
 1714SOL    HW3 6887   0.688   1.424   3.059
 1714SOL    MW4 6888   0.688   1.505   3.092
 1715SOL     OW 6889   0.462   1.649   3.014
 1715SOL    HW2 6890   0.536   1.594   3.041
 1715SOL    HW3 6891   0.385   1.591   3.023
 1715SOL    MW4 6892   0.461   1.634   3.019
 1716SOL     OW 6893   0.478   1.913   3.095
 1716SOL    HW2 6894   0.459   1.820   3.080
 1716SOL    HW3 6895   0.405   1.959   3.052
 1716SOL    MW4 6896   0.466   1.907   3.087
 1717SOL     OW 6897   0.712   2.052   2.984
 1717SOL    HW2 6898   0.795   2.025   3.023
 1717SOL    HW3 6899   0.647   1.994   3.023
 1717SOL    MW4 6900   0.714   2.041   2.994
 1718SOL     OW 6901   0.643   2.279   3.125
 1718SOL    HW2 6902   0.658   2.271   3.219
 1718SOL    HW3 6903   0.666   2.193   3.090
 1718SOL    MW4 6904   0.648   2.267   3.133
 1719SOL     OW 6905   0.477   2.455   3.021
 1719SOL    HW2 6906   0.533   2.385   3.056
 1719SOL    HW3 6907   0.485   2.446   2.926
 1719SOL    MW4 6908   0.485   2.444   3.013
 1720SOL     OW 6909   0.459   2.723   3.110
 1720SOL    HW2 6910   0.544   2.765   3.100
 1720SOL    HW3 6911   0.474   2.633   3.081
 1720SOL    MW4 6912   0.472   2.716   3.105
 1721SOL     OW 6913   0.707   2.831   3.039
 1721SOL    HW2 6914   0.786   2.784   3.066
 1721SOL    HW3 6915   0.731   2.923   3.046
 1721SOL    MW4 6916   0.721   2.837   3.043
 1722SOL     OW 6917   0.685   3.101   3.091
 1722SOL    HW2 6918   0.696   3.102   3.186
 1722SOL    HW3 6919   0.593   3.125   3.077
 1722SOL    MW4 6920   0.674   3.104   3.102
 1723SOL     OW 6921   0.432   3.189   3.022
 1723SOL    HW2 6922   0.429   3.274   3.065
 1723SOL    HW3 6923   0.342   3.155   3.031
 1723SOL    MW4 6924   0.419   3.195   3.029
 1724SOL     OW 6925   0.443   3.472   3.117
 1724SOL    HW2 6926   0.461   3.493   3.208
 1724SOL    HW3 6927   0.365   3.522   3.095
 1724SOL    MW4 6928   0.435   3.481   3.126
 1725SOL     OW 6929   0.627   3.636   2.995
 1725SOL    HW2 6930   0.703   3.598   3.040
 1725SOL    HW3 6931   0.553   3.586   3.028
 1725SOL    MW4 6932   0.627   3.624   3.005
 1726SOL     OW 6933   0.673   3.889   3.095
 1726SOL    HW2 6934   0.677   3.868   3.188
 1726SOL    HW3 6935   0.643   3.808   3.053
 1726SOL    MW4 6936   0.669   3.876   3.102
 1727SOL     OW 6937   0.437   4.002   3.009
 1727SOL    HW2 6938   0.519   3.963   3.040
 1727SOL    HW3 6939   0.445   4.002   2.913
 1727SOL    MW4 6940   0.449   3.997   3.000
 1728SOL     OW 6941   0.464   4.275   3.093
 1728SOL    HW2 6942   0.450   4.181   3.077
 1728SOL    HW3 6943   0.383   4.317   3.063
 1728SOL    MW4 6944   0.451   4.268   3.087
 1729SOL     OW 6945   0.708   4.367   3.006
 1729SOL    HW2 6946   0.625   4.332   3.039
 1729SOL    HW3 6947   0.695   4.373   2.911
 1729SOL    MW4 6948   0.695   4.363   2.997
 1730SOL     OW 6949   1.141   4.640   3.098
 1730SOL    HW2 6950   1.214   4.686   3.058
 1730SOL    HW3 6951   1.063   4.678   3.056
 1730SOL    MW4 6952   1.140   4.651   3.087
 1731SOL     OW 6953   0.922   0.069   2.965
 1731SOL    HW2 6954   0.895   0.150   3.009
 1731SOL    HW3 6955   0.854   0.006   2.989
 1731SOL    MW4 6956   0.909   0.072   2.974
 1732SOL     OW 6957   0.842   0.336   3.055
 1732SOL    HW2 6958   0.857   0.348   3.149
 1732SOL    HW3 6959   0.906   0.393   3.013
 1732SOL    MW4 6960   0.852   0.345   3.062
 1733SOL     OW 6961   1.076   0.491   2.973
 1733SOL    HW2 6962   1.148   0.438   3.009
 1733SOL    HW3 6963   1.089   0.490   2.879
 1733SOL    MW4 6964   1.087   0.484   2.966
 1734SOL     OW 6965   1.081   0.738   3.097
 1734SOL    HW2 6966   1.070   0.737   3.193
 1734SOL    HW3 6967   1.088   0.646   3.073
 1734SOL    MW4 6968   1.081   0.726   3.107
 1735SOL     OW 6969   0.899   0.888   2.973
 1735SOL    HW2 6970   0.958   0.823   3.010
 1735SOL    HW3 6971   0.812   0.853   2.988
 1735SOL    MW4 6972   0.896   0.875   2.980
 1736SOL     OW 6973   0.929   1.124   3.108
 1736SOL    HW2 6974   1.005   1.165   3.068
 1736SOL    HW3 6975   0.926   1.036   3.071
 1736SOL    MW4 6976   0.938   1.118   3.098
 1737SOL     OW 6977   1.117   1.264   2.955
 1737SOL    HW2 6978   1.187   1.198   2.963
 1737SOL    HW3 6979   1.112   1.283   2.861
 1737SOL    MW4 6980   1.126   1.258   2.944
 1738SOL     OW 6981   1.141   1.510   3.098
 1738SOL    HW2 6982   1.218   1.557   3.066
 1738SOL    HW3 6983   1.131   1.437   3.037
 1738SOL    MW4 6984   1.150   1.507   3.086
 1739SOL     OW 6985   0.915   1.649   2.996
 1739SOL    HW2 6986   0.990   1.608   3.039
 1739SOL    HW3 6987   0.841   1.592   3.017
 1739SOL    MW4 6988   0.915   1.636   3.004
 1740SOL     OW 6989   0.929   1.930   3.073
 1740SOL    HW2 6990   0.930   1.937   3.168
 1740SOL    HW3 6991   0.890   1.844   3.055
 1740SOL    MW4 6992   0.924   1.920   3.083
 1741SOL     OW 6993   1.127   2.093   2.976
 1741SOL    HW2 6994   1.057   2.032   2.997
 1741SOL    HW3 6995   1.141   2.083   2.882
 1741SOL    MW4 6996   1.120   2.084   2.967
 1742SOL     OW 6997   1.113   2.335   3.107
 1742SOL    HW2 6998   1.030   2.379   3.089
 1742SOL    HW3 6999   1.108   2.253   3.057
 1742SOL    MW4 7000   1.102   2.330   3.098
 1743SOL     OW 7001   0.870   2.440   3.011
 1743SOL    HW2 7002   0.790   2.395   3.038
 1743SOL    HW3 7003   0.873   2.428   2.916
 1743SOL    MW4 7004   0.860   2.433   3.002
 1744SOL     OW 7005   0.945   2.689   3.095
 1744SOL    HW2 7006   0.951   2.678   3.190
 1744SOL    HW3 7007   0.905   2.608   3.064
 1744SOL    MW4 7008   0.940   2.677   3.104
 1745SOL     OW 7009   1.148   2.843   2.982
 1745SOL    HW2 7010   1.152   2.923   3.035
 1745SOL    HW3 7011   1.073   2.796   3.016
 1745SOL    MW4 7012   1.139   2.848   2.994
 1746SOL     OW 7013   1.131   3.097   3.110
 1746SOL    HW2 7014   1.213   3.134   3.077
 1746SOL    HW3 7015   1.063   3.152   3.071
 1746SOL    MW4 7016   1.133   3.109   3.100
 1747SOL     OW 7017   0.901   3.243   3.029
 1747SOL    HW2 7018   0.822   3.193   3.046
 1747SOL    HW3 7019   0.915   3.234   2.934
 1747SOL    MW4 7020   0.893   3.235   3.019
 1748SOL     OW 7021   0.869   3.525   3.077
 1748SOL    HW2 7022   0.958   3.559   3.069
 1748SOL    HW3 7023   0.874   3.435   3.045
 1748SOL    MW4 7024   0.881   3.517   3.072
 1749SOL     OW 7025   1.122   3.654   3.023
 1749SOL    HW2 7026   1.181   3.588   3.059
 1749SOL    HW3 7027   1.147   3.735   3.067
 1749SOL    MW4 7028   1.133   3.656   3.033
 1750SOL     OW 7029   1.154   3.908   3.114
 1750SOL    HW2 7030   1.142   3.903   3.209
 1750SOL    HW3 7031   1.066   3.923   3.079
 1750SOL    MW4 7032   1.141   3.909   3.122
 1751SOL     OW 7033   0.913   3.999   3.022
 1751SOL    HW2 7034   0.841   3.951   3.064
 1751SOL    HW3 7035   0.895   3.993   2.929
 1751SOL    MW4 7036   0.901   3.992   3.015
 1752SOL     OW 7037   0.940   4.258   3.107
 1752SOL    HW2 7038   0.935   4.163   3.095
 1752SOL    HW3 7039   0.865   4.292   3.057
 1752SOL    MW4 7040   0.929   4.250   3.099
 1753SOL     OW 7041   1.131   4.386   2.997
 1753SOL    HW2 7042   1.058   4.338   3.037
 1753SOL    HW3 7043   1.123   4.475   3.030
 1753SOL    MW4 7044   1.121   4.391   3.006
 1754SOL     OW 7045   1.570   4.656   3.123
 1754SOL    HW2 7046   1.534   4.666   3.211
 1754SOL    HW3 7047   1.498   4.683   3.065
 1754SOL    MW4 7048   1.556   4.661   3.127
 1755SOL     OW 7049   1.357   0.091   2.987
 1755SOL    HW2 7050   1.337   0.180   3.015
 1755SOL    HW3 7051   1.338   0.090   2.893
 1755SOL    MW4 7052   1.352   0.102   2.978
 1756SOL     OW 7053   1.288   0.343   3.069
 1756SOL    HW2 7054   1.285   0.359   3.164
 1756SOL    HW3 7055   1.362   0.397   3.039
 1756SOL    MW4 7056   1.297   0.352   3.078
 1757SOL     OW 7057   1.507   0.499   3.022
 1757SOL    HW2 7058   1.501   0.590   3.051
 1757SOL    HW3 7059   1.531   0.505   2.930
 1757SOL    MW4 7060   1.509   0.512   3.014
 1758SOL     OW 7061   1.520   0.794   3.059
 1758SOL    HW2 7062   1.520   0.791   3.154
 1758SOL    HW3 7063   1.430   0.817   3.036
 1758SOL    MW4 7064   1.508   0.796   3.068
 1759SOL     OW 7065   1.273   0.869   2.956
 1759SOL    HW2 7066   1.284   0.958   2.989
 1759SOL    HW3 7067   1.202   0.833   3.010
 1759SOL    MW4 7068   1.265   0.876   2.968
 1760SOL     OW 7069   1.336   1.103   3.058
 1760SOL    HW2 7070   1.314   1.123   3.149
 1760SOL    HW3 7071   1.423   1.142   3.045
 1760SOL    MW4 7072   1.345   1.111   3.068
 1761SOL     OW 7073   1.587   1.255   2.996
 1761SOL    HW2 7074   1.658   1.214   3.046
 1761SOL    HW3 7075   1.585   1.345   3.027
 1761SOL    MW4 7076   1.596   1.261   3.007
 1762SOL     OW 7077   1.617   1.517   3.082
 1762SOL    HW2 7078   1.699   1.566   3.077
 1762SOL    HW3 7079   1.550   1.579   3.056
 1762SOL    MW4 7080   1.619   1.531   3.078
 1763SOL     OW 7081   1.399   1.692   2.991
 1763SOL    HW2 7082   1.388   1.785   3.007
 1763SOL    HW3 7083   1.383   1.682   2.897
 1763SOL    MW4 7084   1.396   1.703   2.981
 1764SOL     OW 7085   1.378   1.962   3.067
 1764SOL    HW2 7086   1.377   1.956   3.163
 1764SOL    HW3 7087   1.286   1.968   3.043
 1764SOL    MW4 7088   1.366   1.962   3.077
 1765SOL     OW 7089   1.612   2.103   3.025
 1765SOL    HW2 7090   1.534   2.048   3.031
 1765SOL    HW3 7091   1.626   2.116   2.931
 1765SOL    MW4 7092   1.604   2.098   3.013
 1766SOL     OW 7093   1.590   2.355   3.136
 1766SOL    HW2 7094   1.516   2.408   3.104
 1766SOL    HW3 7095   1.576   2.268   3.098
 1766SOL    MW4 7096   1.578   2.351   3.127
 1767SOL     OW 7097   1.351   2.467   3.034
 1767SOL    HW2 7098   1.267   2.425   3.049
 1767SOL    HW3 7099   1.361   2.469   2.939
 1767SOL    MW4 7100   1.341   2.462   3.023
 1768SOL     OW 7101   1.372   2.745   3.086
 1768SOL    HW2 7102   1.386   2.653   3.064
 1768SOL    HW3 7103   1.290   2.767   3.044
 1768SOL    MW4 7104   1.363   2.736   3.078
 1769SOL     OW 7105   1.598   2.876   2.989
 1769SOL    HW2 7106   1.680   2.838   3.020
 1769SOL    HW3 7107   1.530   2.819   3.024
 1769SOL    MW4 7108   1.600   2.864   2.998
 1770SOL     OW 7109   1.591   3.138   3.094
 1770SOL    HW2 7110   1.586   3.126   3.189
 1770SOL    HW3 7111   1.599   3.049   3.060
 1770SOL    MW4 7112   1.591   3.124   3.102
 1771SOL     OW 7113   1.361   3.205   2.993
 1771SOL    HW2 7114   1.449   3.184   3.024
 1771SOL    HW3 7115   1.370   3.209   2.898
 1771SOL    MW4 7116   1.374   3.202   2.984
 1772SOL     OW 7117   1.299   3.450   3.110
 1772SOL    HW2 7118   1.313   3.430   3.203
 1772SOL    HW3 7119   1.311   3.367   3.065
 1772SOL    MW4 7120   1.302   3.437   3.117
 1773SOL     OW 7121   1.529   3.603   3.018
 1773SOL    HW2 7122   1.449   3.560   3.047
 1773SOL    HW3 7123   1.527   3.597   2.922
 1773SOL    MW4 7124   1.518   3.596   3.009
 1774SOL     OW 7125   1.562   3.873   3.080
 1774SOL    HW2 7126   1.648   3.898   3.046
 1774SOL    HW3 7127   1.548   3.784   3.048
 1774SOL    MW4 7128   1.571   3.865   3.072
 1775SOL     OW 7129   1.364   4.013   2.979
 1775SOL    HW2 7130   1.439   3.960   3.006
 1775SOL    HW3 7131   1.288   3.966   3.013
 1775SOL    MW4 7132   1.364   4.000   2.987
 1776SOL     OW 7133   1.348   4.264   3.108
 1776SOL    HW2 7134   1.351   4.180   3.064
 1776SOL    HW3 7135   1.266   4.304   3.078
 1776SOL    MW4 7136   1.338   4.258   3.099
 1777SOL     OW 7137   1.581   4.406   3.011
 1777SOL    HW2 7138   1.502   4.359   3.038
 1777SOL    HW3 7139   1.584   4.482   3.069
 1777SOL    MW4 7140   1.571   4.410   3.022
 1778SOL     OW 7141   2.044   4.636   3.069
 1778SOL    HW2 7142   2.053   4.635   3.164
 1778SOL    HW3 7143   1.957   4.675   3.054
 1778SOL    MW4 7144   2.033   4.641   3.079
 1779SOL     OW 7145   1.796   0.114   3.027
 1779SOL    HW2 7146   1.725   0.059   3.060
 1779SOL    HW3 7147   1.804   0.089   2.935
 1779SOL    MW4 7148   1.788   0.103   3.019
 1780SOL     OW 7149   1.753   0.378   3.099
 1780SOL    HW2 7150   1.768   0.287   3.072
 1780SOL    HW3 7151   1.666   0.399   3.063
 1780SOL    MW4 7152   1.743   0.369   3.091
 1781SOL     OW 7153   2.000   0.485   3.017
 1781SOL    HW2 7154   1.909   0.469   3.038
 1781SOL    HW3 7155   2.006   0.466   2.923
 1781SOL    MW4 7156   1.989   0.480   3.007
 1782SOL     OW 7157   2.010   0.770   3.105
 1782SOL    HW2 7158   1.929   0.810   3.072
 1782SOL    HW3 7159   2.006   0.680   3.074
 1782SOL    MW4 7160   1.999   0.764   3.097
 1783SOL     OW 7161   1.768   0.886   2.991
 1783SOL    HW2 7162   1.674   0.868   2.994
 1783SOL    HW3 7163   1.790   0.884   2.898
 1783SOL    MW4 7164   1.759   0.883   2.979
 1784SOL     OW 7165   1.823   1.146   3.077
 1784SOL    HW2 7166   1.817   1.145   3.173
 1784SOL    HW3 7167   1.809   1.055   3.052
 1784SOL    MW4 7168   1.821   1.134   3.087
 1785SOL     OW 7169   2.056   1.310   2.978
 1785SOL    HW2 7170   2.131   1.255   3.003
 1785SOL    HW3 7171   1.979   1.262   3.009
 1785SOL    MW4 7172   2.056   1.297   2.985
 1786SOL     OW 7173   2.107   1.551   3.113
 1786SOL    HW2 7174   2.092   1.533   3.206
 1786SOL    HW3 7175   2.102   1.465   3.071
 1786SOL    MW4 7176   2.105   1.537   3.119
 1787SOL     OW 7177   1.854   1.670   3.055
 1787SOL    HW2 7178   1.858   1.761   3.085
 1787SOL    HW3 7179   1.940   1.634   3.077
 1787SOL    MW4 7180   1.866   1.677   3.062
 1788SOL     OW 7181   1.823   1.949   3.122
 1788SOL    HW2 7182   1.898   1.993   3.083
 1788SOL    HW3 7183   1.747   1.994   3.085
 1788SOL    MW4 7184   1.823   1.961   3.112
 1789SOL     OW 7185   2.076   2.054   3.027
 1789SOL    HW2 7186   2.141   2.013   3.083
 1789SOL    HW3 7187   2.081   2.147   3.048
 1789SOL    MW4 7188   2.085   2.061   3.037
 1790SOL     OW 7189   2.058   2.322   3.138
 1790SOL    HW2 7190   2.121   2.383   3.098
 1790SOL    HW3 7191   1.973   2.355   3.112
 1790SOL    MW4 7192   2.055   2.334   3.129
 1791SOL     OW 7193   1.824   2.459   3.035
 1791SOL    HW2 7194   1.820   2.550   3.062
 1791SOL    HW3 7195   1.748   2.418   3.078
 1791SOL    MW4 7196   1.813   2.465   3.044
 1792SOL     OW 7197   1.794   2.718   3.101
 1792SOL    HW2 7198   1.804   2.697   3.194
 1792SOL    HW3 7199   1.882   2.744   3.073
 1792SOL    MW4 7200   1.807   2.719   3.110
 1793SOL     OW 7201   2.024   2.812   3.021
 1793SOL    HW2 7202   2.006   2.900   3.054
 1793SOL    HW3 7203   2.043   2.824   2.928
 1793SOL    MW4 7204   2.024   2.825   3.013
 1794SOL     OW 7205   2.030   3.085   3.081
 1794SOL    HW2 7206   2.022   3.096   3.176
 1794SOL    HW3 7207   1.969   3.149   3.044
 1794SOL    MW4 7208   2.021   3.095   3.088
 1795SOL     OW 7209   1.826   3.242   2.970
 1795SOL    HW2 7210   1.756   3.208   3.025
 1795SOL    HW3 7211   1.791   3.239   2.881
 1795SOL    MW4 7212   1.812   3.237   2.966
 1796SOL     OW 7213   1.788   3.504   3.091
 1796SOL    HW2 7214   1.790   3.413   3.062
 1796SOL    HW3 7215   1.702   3.536   3.063
 1796SOL    MW4 7216   1.777   3.496   3.084
 1797SOL     OW 7217   2.028   3.592   3.002
 1797SOL    HW2 7218   2.026   3.679   3.042
 1797SOL    HW3 7219   1.942   3.554   3.023
 1797SOL    MW4 7220   2.016   3.599   3.010
 1798SOL     OW 7221   2.012   3.847   3.083
 1798SOL    HW2 7222   2.026   3.862   3.176
 1798SOL    HW3 7223   1.934   3.898   3.062
 1798SOL    MW4 7224   2.003   3.856   3.093
 1799SOL     OW 7225   1.795   3.983   2.989
 1799SOL    HW2 7226   1.800   4.074   3.020
 1799SOL    HW3 7227   1.784   3.991   2.894
 1799SOL    MW4 7228   1.794   3.996   2.981
 1800SOL     OW 7229   1.786   4.250   3.094
 1800SOL    HW2 7230   1.867   4.286   3.058
 1800SOL    HW3 7231   1.718   4.309   3.064
 1800SOL    MW4 7232   1.788   4.262   3.085
 1801SOL     OW 7233   1.995   4.380   2.968
 1801SOL    HW2 7234   2.021   4.468   2.995
 1801SOL    HW3 7235   1.990   4.384   2.873
 1801SOL    MW4 7236   1.998   4.392   2.959
 1802SOL     OW 7237   2.483   4.631   3.080
 1802SOL    HW2 7238   2.495   4.540   3.052
 1802SOL    HW3 7239   2.420   4.667   3.019
 1802SOL    MW4 7240   2.476   4.624   3.069
 1803SOL     OW 7241   2.263   0.085   2.951
 1803SOL    HW2 7242   2.259   0.174   2.987
 1803SOL    HW3 7243   2.186   0.041   2.989
 1803SOL    MW4 7244   2.252   0.091   2.961
 1804SOL     OW 7245   2.214   0.325   3.080
 1804SOL    HW2 7246   2.236   0.335   3.172
 1804SOL    HW3 7247   2.131   0.372   3.070
 1804SOL    MW4 7248   2.206   0.333   3.091
 1805SOL     OW 7249   2.436   0.482   3.013
 1805SOL    HW2 7250   2.357   0.431   3.033
 1805SOL    HW3 7251   2.440   0.485   2.917
 1805SOL    MW4 7252   2.426   0.476   3.003
 1806SOL     OW 7253   2.461   0.749   3.111
 1806SOL    HW2 7254   2.537   0.782   3.064
 1806SOL    HW3 7255   2.463   0.654   3.099
 1806SOL    MW4 7256   2.471   0.741   3.103
 1807SOL     OW 7257   2.254   0.895   2.993
 1807SOL    HW2 7258   2.328   0.845   3.028
 1807SOL    HW3 7259   2.176   0.851   3.028
 1807SOL    MW4 7260   2.253   0.882   3.003
 1808SOL     OW 7261   2.256   1.139   3.093
 1808SOL    HW2 7262   2.256   1.133   3.188
 1808SOL    HW3 7263   2.255   1.048   3.063
 1808SOL    MW4 7264   2.256   1.126   3.101
 1809SOL     OW 7265   2.494   1.285   3.028
 1809SOL    HW2 7266   2.420   1.227   3.044
 1809SOL    HW3 7267   2.492   1.303   2.934
 1809SOL    MW4 7268   2.484   1.280   3.018
 1810SOL     OW 7269   2.493   1.535   3.140
 1810SOL    HW2 7270   2.422   1.590   3.107
 1810SOL    HW3 7271   2.482   1.452   3.093
 1810SOL    MW4 7272   2.482   1.531   3.129
 1811SOL     OW 7273   2.307   1.703   3.006
 1811SOL    HW2 7274   2.240   1.653   3.052
 1811SOL    HW3 7275   2.291   1.686   2.914
 1811SOL    MW4 7276   2.296   1.694   3.000
 1812SOL     OW 7277   2.283   1.938   3.166
 1812SOL    HW2 7278   2.349   2.003   3.140
 1812SOL    HW3 7279   2.288   1.870   3.100
 1812SOL    MW4 7280   2.293   1.938   3.154
 1813SOL     OW 7281   2.475   2.093   3.061
 1813SOL    HW2 7282   2.552   2.036   3.062
 1813SOL    HW3 7283   2.441   2.085   2.971
 1813SOL    MW4 7284   2.481   2.084   3.049
 1814SOL     OW 7285   2.423   2.345   3.150
 1814SOL    HW2 7286   2.404   2.352   3.244
 1814SOL    HW3 7287   2.456   2.256   3.139
 1814SOL    MW4 7288   2.425   2.334   3.161
 1815SOL     OW 7289   2.225   2.474   3.009
 1815SOL    HW2 7290   2.234   2.564   3.042
 1815SOL    HW3 7291   2.304   2.430   3.041
 1815SOL    MW4 7292   2.237   2.480   3.018
 1816SOL     OW 7293   2.260   2.729   3.121
 1816SOL    HW2 7294   2.343   2.769   3.094
 1816SOL    HW3 7295   2.193   2.790   3.090
 1816SOL    MW4 7296   2.262   2.743   3.114
 1817SOL     OW 7297   2.509   2.837   3.057
 1817SOL    HW2 7298   2.488   2.925   3.087
 1817SOL    HW3 7299   2.508   2.842   2.961
 1817SOL    MW4 7300   2.506   2.849   3.048
 1818SOL     OW 7301   2.448   3.093   3.131
 1818SOL    HW2 7302   2.530   3.133   3.102
 1818SOL    HW3 7303   2.380   3.140   3.084
 1818SOL    MW4 7304   2.450   3.104   3.121
 1819SOL     OW 7305   2.247   3.213   2.984
 1819SOL    HW2 7306   2.258   3.297   3.029
 1819SOL    HW3 7307   2.166   3.178   3.020
 1819SOL    MW4 7308   2.238   3.220   2.995
 1820SOL     OW 7309   2.229   3.473   3.121
 1820SOL    HW2 7310   2.304   3.516   3.080
 1820SOL    HW3 7311   2.152   3.515   3.083
 1820SOL    MW4 7312   2.229   3.484   3.111
 1821SOL     OW 7313   2.457   3.608   3.017
 1821SOL    HW2 7314   2.541   3.571   3.045
 1821SOL    HW3 7315   2.450   3.690   3.066
 1821SOL    MW4 7316   2.468   3.614   3.027
 1822SOL     OW 7317   2.427   3.864   3.146
 1822SOL    HW2 7318   2.450   3.842   3.236
 1822SOL    HW3 7319   2.507   3.902   3.110
 1822SOL    MW4 7320   2.440   3.866   3.153
 1823SOL     OW 7321   2.230   3.981   2.943
 1823SOL    HW2 7322   2.301   3.961   3.004
 1823SOL    HW3 7323   2.154   3.937   2.980
 1823SOL    MW4 7324   2.230   3.973   2.955
 1824SOL     OW 7325   2.229   4.238   3.051
 1824SOL    HW2 7326   2.231   4.158   2.999
 1824SOL    HW3 7327   2.155   4.288   3.015
 1824SOL    MW4 7328   2.219   4.234   3.039
 1825SOL     OW 7329   2.469   4.368   2.977
 1825SOL    HW2 7330   2.389   4.324   3.004
 1825SOL    HW3 7331   2.460   4.377   2.882
 1825SOL    MW4 7332   2.457   4.363   2.968
 1826SOL     OW 7333   2.920   0.006   3.128
 1826SOL    HW2 7334   3.006   0.031   3.095
 1826SOL    HW3 7335   2.904  -0.081   3.092
 1826SOL    MW4 7336   2.929  -0.002   3.119
 1827SOL     OW 7337   2.704   0.124   3.003
 1827SOL    HW2 7338   2.772   0.089   3.060
 1827SOL    HW3 7339   2.627   0.069   3.021
 1827SOL    MW4 7340   2.703   0.112   3.013
 1828SOL     OW 7341   2.675   0.393   3.095
 1828SOL    HW2 7342   2.690   0.306   3.059
 1828SOL    HW3 7343   2.594   0.422   3.054
 1828SOL    MW4 7344   2.667   0.385   3.085
 1829SOL     OW 7345   2.915   0.496   3.009
 1829SOL    HW2 7346   2.827   0.462   3.027
 1829SOL    HW3 7347   2.919   0.503   2.914
 1829SOL    MW4 7348   2.904   0.492   2.999
 1830SOL     OW 7349   2.949   0.747   3.105
 1830SOL    HW2 7350   2.957   0.745   3.201
 1830SOL    HW3 7351   2.963   0.656   3.078
 1830SOL    MW4 7352   2.952   0.735   3.114
 1831SOL     OW 7353   2.701   0.888   2.995
 1831SOL    HW2 7354   2.702   0.970   3.043
 1831SOL    HW3 7355   2.766   0.833   3.038
 1831SOL    MW4 7356   2.709   0.892   3.007
 1832SOL     OW 7357   2.734   1.146   3.094
 1832SOL    HW2 7358   2.815   1.175   3.054
 1832SOL    HW3 7359   2.668   1.208   3.064
 1832SOL    MW4 7360   2.736   1.158   3.085
 1833SOL     OW 7361   2.972   1.264   3.017
 1833SOL    HW2 7362   3.030   1.221   3.080
 1833SOL    HW3 7363   2.949   1.347   3.057
 1833SOL    MW4 7364   2.976   1.269   3.031
 1834SOL     OW 7365   2.928   1.516   3.120
 1834SOL    HW2 7366   2.907   1.508   3.213
 1834SOL    HW3 7367   3.005   1.572   3.117
 1834SOL    MW4 7368   2.935   1.522   3.132
 1835SOL     OW 7369   2.700   1.640   3.008
 1835SOL    HW2 7370   2.770   1.599   3.059
 1835SOL    HW3 7371   2.619   1.608   3.047
 1835SOL    MW4 7372   2.699   1.630   3.019
 1836SOL     OW 7373   2.681   1.914   3.112
 1836SOL    HW2 7374   2.761   1.957   3.082
 1836SOL    HW3 7375   2.681   1.830   3.065
 1836SOL    MW4 7376   2.692   1.908   3.102
 1837SOL     OW 7377   2.910   2.051   3.016
 1837SOL    HW2 7378   2.919   2.143   3.038
 1837SOL    HW3 7379   2.910   2.048   2.920
 1837SOL    MW4 7380   2.911   2.063   3.006
 1838SOL     OW 7381   2.915   2.330   3.077
 1838SOL    HW2 7382   2.982   2.392   3.050
 1838SOL    HW3 7383   2.833   2.379   3.071
 1838SOL    MW4 7384   2.913   2.345   3.073
 1839SOL     OW 7385   2.662   2.452   3.048
 1839SOL    HW2 7386   2.681   2.540   3.081
 1839SOL    HW3 7387   2.579   2.428   3.089
 1839SOL    MW4 7388   2.654   2.461   3.058
 1840SOL     OW 7389   2.710   2.700   3.174
 1840SOL    HW2 7390   2.712   2.696   3.270
 1840SOL    HW3 7391   2.633   2.754   3.155
 1840SOL    MW4 7392   2.700   2.707   3.184
 1841SOL     OW 7393   2.886   2.886   3.060
 1841SOL    HW2 7394   2.963   2.845   3.099
 1841SOL    HW3 7395   2.812   2.837   3.095
 1841SOL    MW4 7396   2.886   2.874   3.070
 1842SOL     OW 7397   2.936   3.149   3.117
 1842SOL    HW2 7398   2.849   3.183   3.094
 1842SOL    HW3 7399   2.930   3.056   3.098
 1842SOL    MW4 7400   2.923   3.141   3.111
 1843SOL     OW 7401   2.687   3.224   3.043
 1843SOL    HW2 7402   2.687   3.318   3.059
 1843SOL    HW3 7403   2.682   3.216   2.947
 1843SOL    MW4 7404   2.686   3.235   3.032
 1844SOL     OW 7405   2.710   3.502   3.079
 1844SOL    HW2 7406   2.713   3.493   3.174
 1844SOL    HW3 7407   2.793   3.544   3.056
 1844SOL    MW4 7408   2.721   3.506   3.089
 1845SOL     OW 7409   2.963   3.639   2.969
 1845SOL    HW2 7410   3.028   3.602   3.029
 1845SOL    HW3 7411   2.950   3.729   2.999
 1845SOL    MW4 7412   2.970   3.646   2.981
 1846SOL     OW 7413   2.915   3.899   3.099
 1846SOL    HW2 7414   2.907   3.886   3.193
 1846SOL    HW3 7415   2.828   3.928   3.071
 1846SOL    MW4 7416   2.902   3.901   3.108
 1847SOL     OW 7417   2.644   3.975   3.014
 1847SOL    HW2 7418   2.640   4.064   3.051
 1847SOL    HW3 7419   2.662   3.988   2.921
 1847SOL    MW4 7420   2.646   3.989   3.007
 1848SOL     OW 7421   2.697   4.258   3.089
 1848SOL    HW2 7422   2.685   4.262   3.183
 1848SOL    HW3 7423   2.622   4.305   3.053
 1848SOL    MW4 7424   2.686   4.265   3.096
 1849SOL     OW 7425   2.917   4.402   3.014
 1849SOL    HW2 7426   2.994   4.372   3.062
 1849SOL    HW3 7427   2.844   4.355   3.053
 1849SOL    MW4 7428   2.917   4.392   3.025
 1850SOL     OW 7429   3.407   4.666   3.093
 1850SOL    HW2 7430   3.488   4.697   3.052
 1850SOL    HW3 7431   3.394   4.578   3.056
 1850SOL    MW4 7432   3.416   4.658   3.082
 1851SOL     OW 7433   3.165   0.111   3.029
 1851SOL    HW2 7434   3.167   0.200   3.064
 1851SOL    HW3 7435   3.252   0.076   3.049
 1851SOL    MW4 7436   3.177   0.118   3.037
 1852SOL     OW 7437   3.154   0.379   3.129
 1852SOL    HW2 7438   3.223   0.439   3.099
 1852SOL    HW3 7439   3.074   0.413   3.089
 1852SOL    MW4 7440   3.153   0.391   3.120
 1853SOL     OW 7441   3.367   0.536   3.043
 1853SOL    HW2 7442   3.424   0.469   3.083
 1853SOL    HW3 7443   3.386   0.530   2.950
 1853SOL    MW4 7444   3.377   0.526   3.036
 1854SOL     OW 7445   3.392   0.812   3.078
 1854SOL    HW2 7446   3.391   0.821   3.173
 1854SOL    HW3 7447   3.392   0.717   3.064
 1854SOL    MW4 7448   3.392   0.800   3.089
 1855SOL     OW 7449   3.125   0.908   2.992
 1855SOL    HW2 7450   3.199   0.857   3.025
 1855SOL    HW3 7451   3.048   0.859   3.021
 1855SOL    MW4 7452   3.125   0.895   3.000
 1856SOL     OW 7453   3.194   1.148   3.175
 1856SOL    HW2 7454   3.271   1.181   3.129
 1856SOL    HW3 7455   3.174   1.065   3.132
 1856SOL    MW4 7456   3.201   1.141   3.163
 1857SOL     OW 7457   3.377   1.285   3.010
 1857SOL    HW2 7458   3.469   1.265   3.032
 1857SOL    HW3 7459   3.364   1.374   3.043
 1857SOL    MW4 7460   3.388   1.294   3.017
 1858SOL     OW 7461   3.352   1.540   3.118
 1858SOL    HW2 7462   3.347   1.546   3.213
 1858SOL    HW3 7463   3.436   1.579   3.095
 1858SOL    MW4 7464   3.362   1.546   3.127
 1859SOL     OW 7465   3.174   1.700   3.008
 1859SOL    HW2 7466   3.243   1.637   3.031
 1859SOL    HW3 7467   3.144   1.673   2.922
 1859SOL    MW4 7468   3.179   1.688   3.000
 1860SOL     OW 7469   3.161   1.965   3.100
 1860SOL    HW2 7470   3.169   1.873   3.074
 1860SOL    HW3 7471   3.072   1.989   3.076
 1860SOL    MW4 7472   3.151   1.956   3.094
 1861SOL     OW 7473   3.376   2.080   2.984
 1861SOL    HW2 7474   3.450   2.039   3.029
 1861SOL    HW3 7475   3.298   2.043   3.026
 1861SOL    MW4 7476   3.375   2.070   2.995
 1862SOL     OW 7477   3.370   2.333   3.130
 1862SOL    HW2 7478   3.384   2.317   3.223
 1862SOL    HW3 7479   3.363   2.246   3.091
 1862SOL    MW4 7480   3.371   2.319   3.137
 1863SOL     OW 7481   3.153   2.491   3.040
 1863SOL    HW2 7482   3.219   2.430   3.074
 1863SOL    HW3 7483   3.149   2.471   2.946
 1863SOL    MW4 7484   3.161   2.480   3.032
 1864SOL     OW 7485   3.122   2.768   3.116
 1864SOL    HW2 7486   3.146   2.781   3.208
 1864SOL    HW3 7487   3.130   2.674   3.102
 1864SOL    MW4 7488   3.126   2.757   3.127
 1865SOL     OW 7489   3.339   2.873   2.985
 1865SOL    HW2 7490   3.331   2.955   3.033
 1865SOL    HW3 7491   3.271   2.817   3.023
 1865SOL    MW4 7492   3.329   2.876   2.997
 1866SOL     OW 7493   3.340   3.126   3.092
 1866SOL    HW2 7494   3.338   3.147   3.185
 1866SOL    HW3 7495   3.268   3.177   3.055
 1866SOL    MW4 7496   3.330   3.136   3.099
 1867SOL     OW 7497   3.144   3.284   2.997
 1867SOL    HW2 7498   3.068   3.239   3.033
 1867SOL    HW3 7499   3.130   3.284   2.902
 1867SOL    MW4 7500   3.132   3.278   2.989
 1868SOL     OW 7501   3.169   3.524   3.131
 1868SOL    HW2 7502   3.223   3.583   3.079
 1868SOL    HW3 7503   3.164   3.444   3.079
 1868SOL    MW4 7504   3.176   3.521   3.117
 1869SOL     OW 7505   3.366   3.632   2.958
 1869SOL    HW2 7506   3.427   3.593   3.022
 1869SOL    HW3 7507   3.374   3.726   2.972
 1869SOL    MW4 7508   3.375   3.639   2.969
 1870SOL     OW 7509   3.358   3.894   3.069
 1870SOL    HW2 7510   3.336   3.883   3.162
 1870SOL    HW3 7511   3.280   3.936   3.031
 1870SOL    MW4 7512   3.344   3.898   3.076
 1871SOL     OW 7513   3.124   4.040   2.995
 1871SOL    HW2 7514   3.051   3.987   3.027
 1871SOL    HW3 7515   3.107   4.049   2.901
 1871SOL    MW4 7516   3.112   4.034   2.987
 1872SOL     OW 7517   3.160   4.291   3.107
 1872SOL    HW2 7518   3.162   4.277   3.202
 1872SOL    HW3 7519   3.147   4.203   3.071
 1872SOL    MW4 7520   3.159   4.277   3.115
 1873SOL     OW 7521   3.362   4.439   2.965
 1873SOL    HW2 7522   3.431   4.398   3.017
 1873SOL    HW3 7523   3.280   4.407   3.004
 1873SOL    MW4 7524   3.360   4.429   2.977
 1874SOL     OW 7525   3.812   4.645   3.123
 1874SOL    HW2 7526   3.814   4.559   3.080
 1874SOL    HW3 7527   3.749   4.696   3.072
 1874SOL    MW4 7528   3.804   4.640   3.110
 1875SOL     OW 7529   3.626   0.139   3.000
 1875SOL    HW2 7530   3.597   0.221   3.041
 1875SOL    HW3 7531   3.631   0.159   2.907
 1875SOL    MW4 7532   3.623   0.152   2.993
 1876SOL     OW 7533   3.563   0.373   3.141
 1876SOL    HW2 7534   3.590   0.378   3.232
 1876SOL    HW3 7535   3.622   0.432   3.094
 1876SOL    MW4 7536   3.574   0.382   3.147
 1877SOL     OW 7537   3.769   0.506   3.024
 1877SOL    HW2 7538   3.851   0.465   3.050
 1877SOL    HW3 7539   3.782   0.599   3.039
 1877SOL    MW4 7540   3.781   0.513   3.029
 1878SOL     OW 7541   3.815   0.780   3.093
 1878SOL    HW2 7542   3.838   0.768   3.185
 1878SOL    HW3 7543   3.898   0.801   3.050
 1878SOL    MW4 7544   3.829   0.781   3.099
 1879SOL     OW 7545   3.604   0.919   2.961
 1879SOL    HW2 7546   3.680   0.880   3.004
 1879SOL    HW3 7547   3.528   0.881   3.006
 1879SOL    MW4 7548   3.604   0.909   2.972
 1880SOL     OW 7549   3.612   1.155   3.103
 1880SOL    HW2 7550   3.689   1.196   3.064
 1880SOL    HW3 7551   3.604   1.070   3.058
 1880SOL    MW4 7552   3.621   1.149   3.092
 1881SOL     OW 7553   3.845   1.296   2.976
 1881SOL    HW2 7554   3.838   1.391   2.991
 1881SOL    HW3 7555   3.835   1.286   2.882
 1881SOL    MW4 7556   3.843   1.307   2.966
 1882SOL     OW 7557   3.818   1.571   3.090
 1882SOL    HW2 7558   3.818   1.589   3.185
 1882SOL    HW3 7559   3.740   1.615   3.057
 1882SOL    MW4 7560   3.808   1.579   3.099
 1883SOL     OW 7561   3.585   1.675   2.995
 1883SOL    HW2 7562   3.582   1.765   3.026
 1883SOL    HW3 7563   3.576   1.682   2.900
 1883SOL    MW4 7564   3.583   1.688   2.986
 1884SOL     OW 7565   3.582   1.933   3.089
 1884SOL    HW2 7566   3.581   1.933   3.184
 1884SOL    HW3 7567   3.673   1.954   3.066
 1884SOL    MW4 7568   3.594   1.936   3.098
 1885SOL     OW 7569   3.820   2.053   2.997
 1885SOL    HW2 7570   3.825   2.148   3.008
 1885SOL    HW3 7571   3.809   2.039   2.903
 1885SOL    MW4 7572   3.819   2.063   2.986
 1886SOL     OW 7573   3.833   2.324   3.065
 1886SOL    HW2 7574   3.836   2.320   3.161
 1886SOL    HW3 7575   3.750   2.366   3.045
 1886SOL    MW4 7576   3.823   2.329   3.075
 1887SOL     OW 7577   3.580   2.448   2.991
 1887SOL    HW2 7578   3.571   2.536   3.029
 1887SOL    HW3 7579   3.509   2.398   3.031
 1887SOL    MW4 7580   3.569   2.453   3.002
 1888SOL     OW 7581   3.563   2.729   3.065
 1888SOL    HW2 7582   3.642   2.770   3.029
 1888SOL    HW3 7583   3.491   2.784   3.034
 1888SOL    MW4 7584   3.564   2.742   3.056
 1889SOL     OW 7585   3.816   2.855   2.986
 1889SOL    HW2 7586   3.800   2.945   3.013
 1889SOL    HW3 7587   3.832   2.861   2.892
 1889SOL    MW4 7588   3.816   2.867   2.977
 1890SOL     OW 7589   3.780   3.111   3.110
 1890SOL    HW2 7590   3.856   3.135   3.057
 1890SOL    HW3 7591   3.708   3.163   3.074
 1890SOL    MW4 7592   3.781   3.121   3.099
 1891SOL     OW 7593   3.577   3.247   2.996
 1891SOL    HW2 7594   3.506   3.186   3.015
 1891SOL    HW3 7595   3.571   3.263   2.902
 1891SOL    MW4 7596   3.567   3.241   2.986
 1892SOL     OW 7597   3.574   3.507   3.096
 1892SOL    HW2 7598   3.653   3.548   3.059
 1892SOL    HW3 7599   3.568   3.423   3.051
 1892SOL    MW4 7600   3.584   3.501   3.085
 1893SOL     OW 7601   3.794   3.599   2.985
 1893SOL    HW2 7602   3.793   3.693   3.005
 1893SOL    HW3 7603   3.806   3.595   2.890
 1893SOL    MW4 7604   3.796   3.611   2.975
 1894SOL     OW 7605   3.783   3.885   3.074
 1894SOL    HW2 7606   3.777   3.864   3.167
 1894SOL    HW3 7607   3.705   3.939   3.057
 1894SOL    MW4 7608   3.772   3.889   3.084
 1895SOL     OW 7609   3.570   4.039   3.018
 1895SOL    HW2 7610   3.489   4.000   3.051
 1895SOL    HW3 7611   3.570   4.021   2.924
 1895SOL    MW4 7612   3.560   4.032   3.010
 1896SOL     OW 7613   3.582   4.312   3.111
 1896SOL    HW2 7614   3.653   4.359   3.067
 1896SOL    HW3 7615   3.590   4.222   3.080
 1896SOL    MW4 7616   3.593   4.306   3.101
 1897SOL     OW 7617   3.808   4.414   2.976
 1897SOL    HW2 7618   3.880   4.359   3.006
 1897SOL    HW3 7619   3.815   4.412   2.880
 1897SOL    MW4 7620   3.818   4.406   2.967
 1898SOL     OW 7621   4.246   4.661   3.117
 1898SOL    HW2 7622   4.254   4.648   3.212
 1898SOL    HW3 7623   4.268   4.576   3.080
 1898SOL    MW4 7624   4.250   4.648   3.125
 1899SOL     OW 7625   4.028   0.096   2.997
 1899SOL    HW2 7626   4.105   0.061   3.042
 1899SOL    HW3 7627   3.954   0.056   3.043
 1899SOL    MW4 7628   4.028   0.086   3.009
 1900SOL     OW 7629   3.997   0.355   3.089
 1900SOL    HW2 7630   4.075   0.407   3.073
 1900SOL    HW3 7631   4.021   0.267   3.059
 1900SOL    MW4 7632   4.011   0.350   3.083
 1901SOL     OW 7633   4.215   0.519   3.032
 1901SOL    HW2 7634   4.252   0.605   3.056
 1901SOL    HW3 7635   4.229   0.512   2.938
 1901SOL    MW4 7636   4.222   0.530   3.023
 1902SOL     OW 7637   4.294   0.790   3.130
 1902SOL    HW2 7638   4.212   0.816   3.086
 1902SOL    HW3 7639   4.362   0.836   3.081
 1902SOL    MW4 7640   4.292   0.800   3.117
 1903SOL     OW 7641   4.084   0.875   2.988
 1903SOL    HW2 7642   4.062   0.959   3.027
 1903SOL    HW3 7643   4.064   0.885   2.895
 1903SOL    MW4 7644   4.078   0.887   2.981
 1904SOL     OW 7645   4.016   1.120   3.093
 1904SOL    HW2 7646   4.024   1.143   3.185
 1904SOL    HW3 7647   3.949   1.179   3.059
 1904SOL    MW4 7648   4.008   1.131   3.100
 1905SOL     OW 7649   4.233   1.273   3.027
 1905SOL    HW2 7650   4.170   1.203   3.046
 1905SOL    HW3 7651   4.242   1.271   2.931
 1905SOL    MW4 7652   4.226   1.263   3.017
 1906SOL     OW 7653   4.246   1.554   3.120
 1906SOL    HW2 7654   4.173   1.599   3.076
 1906SOL    HW3 7655   4.242   1.465   3.086
 1906SOL    MW4 7656   4.236   1.548   3.109
 1907SOL     OW 7657   4.043   1.701   2.987
 1907SOL    HW2 7658   4.039   1.778   3.044
 1907SOL    HW3 7659   3.967   1.649   3.011
 1907SOL    MW4 7660   4.033   1.704   2.998
 1908SOL     OW 7661   4.045   1.948   3.144
 1908SOL    HW2 7662   4.131   1.963   3.104
 1908SOL    HW3 7663   3.984   1.992   3.086
 1908SOL    MW4 7664   4.049   1.956   3.131
 1909SOL     OW 7665   4.280   2.063   2.996
 1909SOL    HW2 7666   4.264   2.153   3.022
 1909SOL    HW3 7667   4.264   2.061   2.902
 1909SOL    MW4 7668   4.276   2.074   2.987
 1910SOL     OW 7669   4.226   2.343   3.093
 1910SOL    HW2 7670   4.162   2.389   3.040
 1910SOL    HW3 7671   4.311   2.378   3.066
 1910SOL    MW4 7672   4.229   2.354   3.083
 1911SOL     OW 7673   4.027   2.458   2.944
 1911SOL    HW2 7674   4.020   2.545   2.983
 1911SOL    HW3 7675   3.958   2.407   2.987
 1911SOL    MW4 7676   4.017   2.463   2.955
 1912SOL     OW 7677   4.022   2.697   3.101
 1912SOL    HW2 7678   3.990   2.688   3.190
 1912SOL    HW3 7679   3.956   2.750   3.057
 1912SOL    MW4 7680   4.009   2.703   3.107
 1913SOL     OW 7681   4.235   2.796   2.969
 1913SOL    HW2 7682   4.171   2.755   3.027
 1913SOL    HW3 7683   4.320   2.775   3.009
 1913SOL    MW4 7684   4.238   2.787   2.982
 1914SOL     OW 7685   4.216   3.049   3.095
 1914SOL    HW2 7686   4.125   3.077   3.084
 1914SOL    HW3 7687   4.218   2.961   3.056
 1914SOL    MW4 7688   4.204   3.041   3.088
 1915SOL     OW 7689   4.012   3.217   2.995
 1915SOL    HW2 7690   4.032   3.304   3.031
 1915SOL    HW3 7691   4.030   3.224   2.902
 1915SOL    MW4 7692   4.017   3.229   2.988
 1916SOL     OW 7693   4.017   3.483   3.104
 1916SOL    HW2 7694   4.014   3.503   3.198
 1916SOL    HW3 7695   3.935   3.518   3.070
 1916SOL    MW4 7696   4.006   3.490   3.112
 1917SOL     OW 7697   4.234   3.603   2.974
 1917SOL    HW2 7698   4.228   3.695   2.999
 1917SOL    HW3 7699   4.164   3.560   3.023
 1917SOL    MW4 7700   4.224   3.609   2.984
 1918SOL     OW 7701   4.216   3.875   3.075
 1918SOL    HW2 7702   4.158   3.950   3.059
 1918SOL    HW3 7703   4.303   3.907   3.050
 1918SOL    MW4 7704   4.220   3.889   3.070
 1919SOL     OW 7705   4.007   4.048   2.991
 1919SOL    HW2 7706   4.003   4.132   3.037
 1919SOL    HW3 7707   3.940   3.994   3.034
 1919SOL    MW4 7708   3.997   4.052   3.003
 1920SOL     OW 7709   4.014   4.293   3.115
 1920SOL    HW2 7710   4.021   4.269   3.208
 1920SOL    HW3 7711   4.101   4.326   3.093
 1920SOL    MW4 7712   4.027   4.294   3.125
 1921SOL     OW 7713   4.262   4.384   3.006
 1921SOL    HW2 7714   4.345   4.340   3.026
 1921SOL    HW3 7715   4.260   4.388   2.910
 1921SOL    MW4 7716   4.273   4.379   2.996
 1922SOL     OW 7717   0.200   4.646   3.395
 1922SOL    HW2 7718   0.271   4.688   3.443
 1922SOL    HW3 7719   0.207   4.553   3.417
 1922SOL    MW4 7720   0.210   4.639   3.404
 1923SOL     OW 7721   0.010   0.125   3.498
 1923SOL    HW2 7722   0.023   0.213   3.462
 1923SOL    HW3 7723   0.084   0.074   3.465
 1923SOL    MW4 7724   0.022   0.130   3.489
 1924SOL     OW 7725   4.468   0.392   3.388
 1924SOL    HW2 7726   4.389   0.441   3.409
 1924SOL    HW3 7727   4.539   0.444   3.428
 1924SOL    MW4 7728   4.467   0.406   3.396
 1925SOL     OW 7729   0.216   0.493   3.445
 1925SOL    HW2 7730   0.277   0.433   3.402
 1925SOL    HW3 7731   0.222   0.574   3.395
 1925SOL    MW4 7732   0.225   0.496   3.433
 1926SOL     OW 7733   0.210   0.755   3.344
 1926SOL    HW2 7734   0.291   0.791   3.379
 1926SOL    HW3 7735   0.141   0.811   3.380
 1926SOL    MW4 7736   0.212   0.767   3.354
 1927SOL     OW 7737   0.012   0.892   3.475
 1927SOL    HW2 7738   0.021   0.873   3.569
 1927SOL    HW3 7739   0.035   0.984   3.467
 1927SOL    MW4 7740   0.016   0.901   3.487
 1928SOL     OW 7741   0.011   1.166   3.422
 1928SOL    HW2 7742   0.086   1.223   3.440
 1928SOL    HW3 7743   0.007   1.161   3.326
 1928SOL    MW4 7744   0.020   1.173   3.411
 1929SOL     OW 7745   0.226   1.348   3.446
 1929SOL    HW2 7746   0.288   1.292   3.400
 1929SOL    HW3 7747   0.230   1.432   3.401
 1929SOL    MW4 7748   0.235   1.352   3.434
 1930SOL     OW 7749   0.228   1.594   3.334
 1930SOL    HW2 7750   0.311   1.628   3.366
 1930SOL    HW3 7751   0.244   1.571   3.242
 1930SOL    MW4 7752   0.241   1.595   3.326
 1931SOL     OW 7753   0.022   1.695   3.499
 1931SOL    HW2 7754  -0.053   1.650   3.461
 1931SOL    HW3 7755   0.098   1.660   3.451
 1931SOL    MW4 7756   0.022   1.684   3.487
 1932SOL     OW 7757   0.029   1.932   3.349
 1932SOL    HW2 7758   0.027   1.845   3.388
 1932SOL    HW3 7759   0.003   1.918   3.257
 1932SOL    MW4 7760   0.025   1.919   3.342
 1933SOL     OW 7761   0.249   2.050   3.466
 1933SOL    HW2 7762   0.232   2.034   3.559
 1933SOL    HW3 7763   0.177   2.007   3.421
 1933SOL    MW4 7764   0.237   2.042   3.473
 1934SOL     OW 7765   0.243   2.296   3.360
 1934SOL    HW2 7766   0.165   2.344   3.388
 1934SOL    HW3 7767   0.232   2.208   3.397
 1934SOL    MW4 7768   0.231   2.291   3.369
 1935SOL     OW 7769   0.009   2.430   3.446
 1935SOL    HW2 7770   0.013   2.425   3.542
 1935SOL    HW3 7771  -0.072   2.384   3.423
 1935SOL    MW4 7772  -0.001   2.423   3.456
 1936SOL     OW 7773   0.006   2.698   3.361
 1936SOL    HW2 7774   0.082   2.751   3.385
 1936SOL    HW3 7775   0.017   2.617   3.411
 1936SOL    MW4 7776   0.018   2.694   3.371
 1937SOL     OW 7777   0.251   2.829   3.450
 1937SOL    HW2 7778   0.337   2.794   3.428
 1937SOL    HW3 7779   0.255   2.921   3.423
 1937SOL    MW4 7780   0.263   2.836   3.444
 1938SOL     OW 7781   0.251   3.098   3.386
 1938SOL    HW2 7782   0.176   3.131   3.436
 1938SOL    HW3 7783   0.226   3.110   3.294
 1938SOL    MW4 7784   0.238   3.104   3.381
 1939SOL     OW 7785   0.015   3.193   3.513
 1939SOL    HW2 7786  -0.074   3.160   3.497
 1939SOL    HW3 7787   0.016   3.280   3.474
 1939SOL    MW4 7788   0.003   3.200   3.506
 1940SOL     OW 7789   0.012   3.441   3.403
 1940SOL    HW2 7790  -0.048   3.498   3.449
 1940SOL    HW3 7791  -0.009   3.453   3.310
 1940SOL    MW4 7792   0.002   3.450   3.397
 1941SOL     OW 7793   0.212   3.630   3.430
 1941SOL    HW2 7794   0.202   3.636   3.525
 1941SOL    HW3 7795   0.145   3.567   3.403
 1941SOL    MW4 7796   0.202   3.622   3.439
 1942SOL     OW 7797   0.183   3.890   3.391
 1942SOL    HW2 7798   0.106   3.924   3.436
 1942SOL    HW3 7799   0.182   3.796   3.410
 1942SOL    MW4 7800   0.173   3.882   3.399
 1943SOL     OW 7801   4.447   4.012   3.494
 1943SOL    HW2 7802   4.484   4.001   3.582
 1943SOL    HW3 7803   4.478   4.098   3.466
 1943SOL    MW4 7804   4.456   4.022   3.502
 1944SOL     OW 7805   0.022   4.256   3.402
 1944SOL    HW2 7806  -0.051   4.299   3.449
 1944SOL    HW3 7807   0.101   4.289   3.445
 1944SOL    MW4 7808   0.023   4.266   3.414
 1945SOL     OW 7809   0.246   4.380   3.477
 1945SOL    HW2 7810   0.266   4.373   3.570
 1945SOL    HW3 7811   0.324   4.347   3.433
 1945SOL    MW4 7812   0.259   4.375   3.483
 1946SOL     OW 7813   0.622   0.028   3.381
 1946SOL    HW2 7814   0.703   0.059   3.420
 1946SOL    HW3 7815   0.647  -0.002   3.294
 1946SOL    MW4 7816   0.636   0.028   3.375
 1947SOL     OW 7817   0.404   0.120   3.505
 1947SOL    HW2 7818   0.436   0.129   3.595
 1947SOL    HW3 7819   0.478   0.084   3.456
 1947SOL    MW4 7820   0.418   0.116   3.511
 1948SOL     OW 7821   0.422   0.333   3.331
 1948SOL    HW2 7822   0.489   0.393   3.365
 1948SOL    HW3 7823   0.433   0.254   3.384
 1948SOL    MW4 7824   0.432   0.331   3.343
 1949SOL     OW 7825   0.623   0.480   3.439
 1949SOL    HW2 7826   0.654   0.483   3.530
 1949SOL    HW3 7827   0.700   0.457   3.388
 1949SOL    MW4 7828   0.637   0.478   3.444
 1950SOL     OW 7829   0.633   0.750   3.352
 1950SOL    HW2 7830   0.565   0.811   3.381
 1950SOL    HW3 7831   0.620   0.672   3.406
 1950SOL    MW4 7832   0.623   0.748   3.363
 1951SOL     OW 7833   0.447   0.919   3.431
 1951SOL    HW2 7834   0.449   0.926   3.526
 1951SOL    HW3 7835   0.429   1.009   3.401
 1951SOL    MW4 7836   0.445   0.932   3.439
 1952SOL     OW 7837   0.433   1.181   3.371
 1952SOL    HW2 7838   0.512   1.217   3.411
 1952SOL    HW3 7839   0.455   1.169   3.279
 1952SOL    MW4 7840   0.446   1.184   3.364
 1953SOL     OW 7841   0.673   1.286   3.483
 1953SOL    HW2 7842   0.741   1.223   3.456
 1953SOL    HW3 7843   0.699   1.368   3.441
 1953SOL    MW4 7844   0.686   1.288   3.474
 1954SOL     OW 7845   0.692   1.541   3.362
 1954SOL    HW2 7846   0.765   1.584   3.405
 1954SOL    HW3 7847   0.614   1.581   3.400
 1954SOL    MW4 7848   0.691   1.552   3.373
 1955SOL     OW 7849   0.450   1.671   3.459
 1955SOL    HW2 7850   0.469   1.672   3.553
 1955SOL    HW3 7851   0.470   1.760   3.430
 1955SOL    MW4 7852   0.455   1.683   3.468
 1956SOL     OW 7853   0.483   1.933   3.363
 1956SOL    HW2 7854   0.404   1.976   3.397
 1956SOL    HW3 7855   0.470   1.931   3.268
 1956SOL    MW4 7856   0.471   1.938   3.355
 1957SOL     OW 7857   0.717   2.029   3.462
 1957SOL    HW2 7858   0.716   2.013   3.556
 1957SOL    HW3 7859   0.629   2.007   3.433
 1957SOL    MW4 7860   0.706   2.024   3.471
 1958SOL     OW 7861   0.707   2.304   3.403
 1958SOL    HW2 7862   0.788   2.352   3.421
 1958SOL    HW3 7863   0.731   2.212   3.410
 1958SOL    MW4 7864   0.721   2.299   3.406
 1959SOL     OW 7865   0.468   2.447   3.455
 1959SOL    HW2 7866   0.550   2.398   3.458
 1959SOL    HW3 7867   0.404   2.383   3.425
 1959SOL    MW4 7868   0.470   2.432   3.452
 1960SOL     OW 7869   0.504   2.718   3.389
 1960SOL    HW2 7870   0.509   2.628   3.422
 1960SOL    HW3 7871   0.497   2.709   3.294
 1960SOL    MW4 7872   0.504   2.705   3.381
 1961SOL     OW 7873   0.727   2.854   3.502
 1961SOL    HW2 7874   0.792   2.793   3.468
 1961SOL    HW3 7875   0.643   2.820   3.471
 1961SOL    MW4 7876   0.725   2.842   3.493
 1962SOL     OW 7877   0.701   3.099   3.362
 1962SOL    HW2 7878   0.623   3.145   3.396
 1962SOL    HW3 7879   0.702   3.016   3.409
 1962SOL    MW4 7880   0.691   3.094   3.373
 1963SOL     OW 7881   0.471   3.233   3.467
 1963SOL    HW2 7882   0.475   3.228   3.563
 1963SOL    HW3 7883   0.396   3.178   3.443
 1963SOL    MW4 7884   0.461   3.225   3.477
 1964SOL     OW 7885   0.478   3.532   3.381
 1964SOL    HW2 7886   0.465   3.439   3.398
 1964SOL    HW3 7887   0.395   3.573   3.404
 1964SOL    MW4 7888   0.465   3.525   3.386
 1965SOL     OW 7889   0.711   3.626   3.510
 1965SOL    HW2 7890   0.778   3.573   3.466
 1965SOL    HW3 7891   0.629   3.601   3.468
 1965SOL    MW4 7892   0.709   3.616   3.498
 1966SOL     OW 7893   0.659   3.870   3.368
 1966SOL    HW2 7894   0.587   3.917   3.409
 1966SOL    HW3 7895   0.657   3.783   3.409
 1966SOL    MW4 7896   0.649   3.865   3.379
 1967SOL     OW 7897   0.433   3.995   3.471
 1967SOL    HW2 7898   0.434   4.077   3.423
 1967SOL    HW3 7899   0.347   3.958   3.454
 1967SOL    MW4 7900   0.422   4.001   3.463
 1968SOL     OW 7901   0.456   4.260   3.359
 1968SOL    HW2 7902   0.526   4.301   3.410
 1968SOL    HW3 7903   0.484   4.271   3.268
 1968SOL    MW4 7904   0.469   4.267   3.353
 1969SOL     OW 7905   0.650   4.388   3.512
 1969SOL    HW2 7906   0.727   4.351   3.470
 1969SOL    HW3 7907   0.649   4.480   3.487
 1969SOL    MW4 7908   0.660   4.395   3.503
 1970SOL     OW 7909   1.103   0.035   3.366
 1970SOL    HW2 7910   1.182   0.079   3.395
 1970SOL    HW3 7911   1.119   0.012   3.275
 1970SOL    MW4 7912   1.115   0.037   3.358
 1971SOL     OW 7913   0.852   0.104   3.511
 1971SOL    HW2 7914   0.869   0.101   3.605
 1971SOL    HW3 7915   0.938   0.094   3.471
 1971SOL    MW4 7916   0.866   0.102   3.518
 1972SOL     OW 7917   0.865   0.365   3.324
 1972SOL    HW2 7918   0.934   0.393   3.385
 1972SOL    HW3 7919   0.844   0.276   3.352
 1972SOL    MW4 7920   0.872   0.357   3.336
 1973SOL     OW 7921   1.078   0.459   3.462
 1973SOL    HW2 7922   1.058   0.464   3.556
 1973SOL    HW3 7923   1.077   0.549   3.432
 1973SOL    MW4 7924   1.075   0.471   3.471
 1974SOL     OW 7925   1.055   0.707   3.375
 1974SOL    HW2 7926   1.132   0.761   3.394
 1974SOL    HW3 7927   0.981   0.761   3.404
 1974SOL    MW4 7928   1.055   0.721   3.381
 1975SOL     OW 7929   0.845   0.843   3.500
 1975SOL    HW2 7930   0.854   0.934   3.473
 1975SOL    HW3 7931   0.767   0.812   3.455
 1975SOL    MW4 7932   0.836   0.851   3.491
 1976SOL     OW 7933   0.874   1.110   3.401
 1976SOL    HW2 7934   0.955   1.153   3.430
 1976SOL    HW3 7935   0.871   1.125   3.307
 1976SOL    MW4 7936   0.884   1.118   3.393
 1977SOL     OW 7937   1.100   1.242   3.469
 1977SOL    HW2 7938   1.104   1.246   3.565
 1977SOL    HW3 7939   1.132   1.327   3.440
 1977SOL    MW4 7940   1.105   1.253   3.478
 1978SOL     OW 7941   1.163   1.496   3.380
 1978SOL    HW2 7942   1.234   1.558   3.397
 1978SOL    HW3 7943   1.154   1.495   3.285
 1978SOL    MW4 7944   1.171   1.504   3.370
 1979SOL     OW 7945   0.919   1.655   3.481
 1979SOL    HW2 7946   0.937   1.742   3.446
 1979SOL    HW3 7947   0.992   1.602   3.451
 1979SOL    MW4 7948   0.931   1.660   3.472
 1980SOL     OW 7949   0.930   1.904   3.347
 1980SOL    HW2 7950   0.997   1.950   3.399
 1980SOL    HW3 7951   0.849   1.950   3.368
 1980SOL    MW4 7952   0.928   1.916   3.357
 1981SOL     OW 7953   1.157   2.048   3.494
 1981SOL    HW2 7954   1.229   2.005   3.449
 1981SOL    HW3 7955   1.152   2.135   3.454
 1981SOL    MW4 7956   1.166   2.054   3.483
 1982SOL     OW 7957   1.159   2.292   3.391
 1982SOL    HW2 7958   1.237   2.346   3.401
 1982SOL    HW3 7959   1.125   2.315   3.304
 1982SOL    MW4 7960   1.165   2.302   3.381
 1983SOL     OW 7961   0.935   2.430   3.477
 1983SOL    HW2 7962   0.952   2.450   3.569
 1983SOL    HW3 7963   1.002   2.366   3.453
 1983SOL    MW4 7964   0.946   2.424   3.486
 1984SOL     OW 7965   0.956   2.685   3.365
 1984SOL    HW2 7966   1.034   2.730   3.397
 1984SOL    HW3 7967   0.954   2.603   3.414
 1984SOL    MW4 7968   0.966   2.680   3.376
 1985SOL     OW 7969   1.149   2.857   3.477
 1985SOL    HW2 7970   1.135   2.840   3.570
 1985SOL    HW3 7971   1.234   2.817   3.458
 1985SOL    MW4 7972   1.158   2.849   3.487
 1986SOL     OW 7973   1.140   3.133   3.390
 1986SOL    HW2 7974   1.141   3.040   3.411
 1986SOL    HW3 7975   1.124   3.137   3.296
 1986SOL    MW4 7976   1.138   3.122   3.380
 1987SOL     OW 7977   0.900   3.249   3.487
 1987SOL    HW2 7978   0.982   3.205   3.465
 1987SOL    HW3 7979   0.832   3.194   3.449
 1987SOL    MW4 7980   0.902   3.236   3.479
 1988SOL     OW 7981   0.907   3.507   3.355
 1988SOL    HW2 7982   0.903   3.416   3.384
 1988SOL    HW3 7983   0.894   3.503   3.260
 1988SOL    MW4 7984   0.905   3.494   3.346
 1989SOL     OW 7985   1.150   3.602   3.470
 1989SOL    HW2 7986   1.139   3.581   3.562
 1989SOL    HW3 7987   1.073   3.565   3.427
 1989SOL    MW4 7988   1.138   3.594   3.476
 1990SOL     OW 7989   1.112   3.870   3.390
 1990SOL    HW2 7990   1.166   3.924   3.448
 1990SOL    HW3 7991   1.131   3.780   3.417
 1990SOL    MW4 7992   1.122   3.866   3.401
 1991SOL     OW 7993   0.885   4.013   3.492
 1991SOL    HW2 7994   0.963   3.963   3.468
 1991SOL    HW3 7995   0.812   3.963   3.456
 1991SOL    MW4 7996   0.886   4.000   3.484
 1992SOL     OW 7997   0.850   4.271   3.367
 1992SOL    HW2 7998   0.890   4.190   3.398
 1992SOL    HW3 7999   0.882   4.280   3.277
 1992SOL    MW4 8000   0.860   4.262   3.359
 1993SOL     OW 8001   1.095   4.421   3.463
 1993SOL    HW2 8002   1.003   4.409   3.439
 1993SOL    HW3 8003   1.108   4.516   3.461
 1993SOL    MW4 8004   1.085   4.432   3.459
 1994SOL     OW 8005   1.558   4.615   3.400
 1994SOL    HW2 8006   1.525   4.530   3.431
 1994SOL    HW3 8007   1.493   4.678   3.432
 1994SOL    MW4 8008   1.545   4.612   3.408
 1995SOL     OW 8009   1.347   0.129   3.469
 1995SOL    HW2 8010   1.320   0.125   3.561
 1995SOL    HW3 8011   1.331   0.220   3.443
 1995SOL    MW4 8012   1.341   0.141   3.478
 1996SOL     OW 8013   1.305   0.379   3.339
 1996SOL    HW2 8014   1.379   0.426   3.377
 1996SOL    HW3 8015   1.229   0.413   3.386
 1996SOL    MW4 8016   1.304   0.390   3.350
 1997SOL     OW 8017   1.531   0.475   3.444
 1997SOL    HW2 8018   1.540   0.481   3.539
 1997SOL    HW3 8019   1.615   0.444   3.413
 1997SOL    MW4 8020   1.543   0.472   3.452
 1998SOL     OW 8021   1.524   0.750   3.349
 1998SOL    HW2 8022   1.442   0.780   3.389
 1998SOL    HW3 8023   1.532   0.659   3.377
 1998SOL    MW4 8024   1.514   0.742   3.358
 1999SOL     OW 8025   1.281   0.843   3.465
 1999SOL    HW2 8026   1.306   0.844   3.558
 1999SOL    HW3 8027   1.302   0.930   3.433
 1999SOL    MW4 8028   1.287   0.854   3.473
 2000SOL     OW 8029   1.304   1.105   3.362
 2000SOL    HW2 8030   1.372   1.163   3.396
 2000SOL    HW3 8031   1.222   1.146   3.390
 2000SOL    MW4 8032   1.302   1.118   3.370
 2001SOL     OW 8033   1.547   1.252   3.437
 2001SOL    HW2 8034   1.551   1.243   3.532
 2001SOL    HW3 8035   1.630   1.215   3.406
 2001SOL    MW4 8036   1.559   1.246   3.445
 2002SOL     OW 8037   1.589   1.515   3.368
 2002SOL    HW2 8038   1.596   1.423   3.393
 2002SOL    HW3 8039   1.606   1.516   3.274
 2002SOL    MW4 8040   1.592   1.503   3.359
 2003SOL     OW 8041   1.376   1.641   3.453
 2003SOL    HW2 8042   1.376   1.632   3.548
 2003SOL    HW3 8043   1.449   1.586   3.423
 2003SOL    MW4 8044   1.385   1.632   3.461
 2004SOL     OW 8045   1.395   1.953   3.368
 2004SOL    HW2 8046   1.467   1.990   3.419
 2004SOL    HW3 8047   1.387   1.863   3.400
 2004SOL    MW4 8048   1.403   1.946   3.379
 2005SOL     OW 8049   1.596   2.091   3.501
 2005SOL    HW2 8050   1.672   2.042   3.469
 2005SOL    HW3 8051   1.615   2.182   3.478
 2005SOL    MW4 8052   1.608   2.097   3.493
 2006SOL     OW 8053   1.609   2.354   3.411
 2006SOL    HW2 8054   1.525   2.384   3.447
 2006SOL    HW3 8055   1.596   2.356   3.316
 2006SOL    MW4 8056   1.596   2.359   3.404
 2007SOL     OW 8057   1.365   2.463   3.479
 2007SOL    HW2 8058   1.358   2.477   3.574
 2007SOL    HW3 8059   1.376   2.552   3.443
 2007SOL    MW4 8060   1.366   2.477   3.487
 2008SOL     OW 8061   1.372   2.735   3.385
 2008SOL    HW2 8062   1.449   2.771   3.429
 2008SOL    HW3 8063   1.384   2.756   3.293
 2008SOL    MW4 8064   1.384   2.742   3.379
 2009SOL     OW 8065   1.610   2.838   3.475
 2009SOL    HW2 8066   1.682   2.785   3.441
 2009SOL    HW3 8067   1.606   2.914   3.418
 2009SOL    MW4 8068   1.619   2.841   3.463
 2010SOL     OW 8069   1.558   3.107   3.360
 2010SOL    HW2 8070   1.626   3.170   3.386
 2010SOL    HW3 8071   1.480   3.134   3.408
 2010SOL    MW4 8072   1.557   3.119   3.370
 2011SOL     OW 8073   1.358   3.219   3.524
 2011SOL    HW2 8074   1.340   3.226   3.618
 2011SOL    HW3 8075   1.278   3.183   3.486
 2011SOL    MW4 8076   1.345   3.215   3.531
 2012SOL     OW 8077   1.362   3.463   3.380
 2012SOL    HW2 8078   1.363   3.379   3.426
 2012SOL    HW3 8079   1.284   3.507   3.414
 2012SOL    MW4 8080   1.352   3.458   3.391
 2013SOL     OW 8081   1.564   3.636   3.457
 2013SOL    HW2 8082   1.553   3.624   3.551
 2013SOL    HW3 8083   1.510   3.567   3.418
 2013SOL    MW4 8084   1.555   3.625   3.464
 2014SOL     OW 8085   1.554   3.904   3.372
 2014SOL    HW2 8086   1.558   3.810   3.389
 2014SOL    HW3 8087   1.547   3.911   3.277
 2014SOL    MW4 8088   1.553   3.892   3.362
 2015SOL     OW 8089   1.344   4.008   3.527
 2015SOL    HW2 8090   1.328   4.092   3.485
 2015SOL    HW3 8091   1.419   3.971   3.480
 2015SOL    MW4 8092   1.352   4.014   3.516
 2016SOL     OW 8093   1.294   4.234   3.378
 2016SOL    HW2 8094   1.236   4.305   3.407
 2016SOL    HW3 8095   1.315   4.256   3.287
 2016SOL    MW4 8096   1.289   4.246   3.370
 2017SOL     OW 8097   1.534   4.367   3.483
 2017SOL    HW2 8098   1.609   4.332   3.436
 2017SOL    HW3 8099   1.458   4.339   3.432
 2017SOL    MW4 8100   1.533   4.359   3.470
 2018SOL     OW 8101   2.024   4.661   3.349
 2018SOL    HW2 8102   2.095   4.701   3.400
 2018SOL    HW3 8103   1.944   4.690   3.392
 2018SOL    MW4 8104   2.023   4.670   3.361
 2019SOL     OW 8105   1.788   0.094   3.453
 2019SOL    HW2 8106   1.791   0.095   3.549
 2019SOL    HW3 8107   1.702   0.059   3.432
 2019SOL    MW4 8108   1.777   0.090   3.463
 2020SOL     OW 8109   1.776   0.359   3.376
 2020SOL    HW2 8110   1.799   0.269   3.399
 2020SOL    HW3 8111   1.769   0.358   3.281
 2020SOL    MW4 8112   1.778   0.347   3.367
 2021SOL     OW 8113   2.014   0.476   3.428
 2021SOL    HW2 8114   2.011   0.572   3.422
 2021SOL    HW3 8115   1.923   0.449   3.415
 2021SOL    MW4 8116   2.002   0.485   3.425
 2022SOL     OW 8117   2.002   0.747   3.379
 2022SOL    HW2 8118   2.087   0.786   3.399
 2022SOL    HW3 8119   1.999   0.742   3.284
 2022SOL    MW4 8120   2.013   0.752   3.369
 2023SOL     OW 8121   1.780   0.895   3.466
 2023SOL    HW2 8122   1.853   0.840   3.439
 2023SOL    HW3 8123   1.704   0.857   3.421
 2023SOL    MW4 8124   1.779   0.883   3.456
 2024SOL     OW 8125   1.800   1.147   3.342
 2024SOL    HW2 8126   1.876   1.195   3.373
 2024SOL    HW3 8127   1.804   1.063   3.388
 2024SOL    MW4 8128   1.811   1.142   3.352
 2025SOL     OW 8129   2.019   1.279   3.447
 2025SOL    HW2 8130   2.009   1.277   3.543
 2025SOL    HW3 8131   2.034   1.371   3.427
 2025SOL    MW4 8132   2.019   1.291   3.457
 2026SOL     OW 8133   2.061   1.550   3.383
 2026SOL    HW2 8134   2.135   1.559   3.443
 2026SOL    HW3 8135   1.995   1.610   3.417
 2026SOL    MW4 8136   2.062   1.559   3.395
 2027SOL     OW 8137   1.805   1.682   3.505
 2027SOL    HW2 8138   1.787   1.771   3.475
 2027SOL    HW3 8139   1.739   1.628   3.462
 2027SOL    MW4 8140   1.794   1.687   3.495
 2028SOL     OW 8141   1.802   1.942   3.408
 2028SOL    HW2 8142   1.886   1.971   3.443
 2028SOL    HW3 8143   1.805   1.966   3.316
 2028SOL    MW4 8144   1.814   1.949   3.400
 2029SOL     OW 8145   2.047   2.041   3.505
 2029SOL    HW2 8146   2.112   1.980   3.471
 2029SOL    HW3 8147   2.077   2.127   3.475
 2029SOL    MW4 8148   2.059   2.044   3.497
 2030SOL     OW 8149   2.087   2.293   3.408
 2030SOL    HW2 8150   2.142   2.356   3.454
 2030SOL    HW3 8151   2.095   2.317   3.316
 2030SOL    MW4 8152   2.095   2.304   3.402
 2031SOL     OW 8153   1.856   2.465   3.504
 2031SOL    HW2 8154   1.930   2.411   3.474
 2031SOL    HW3 8155   1.780   2.422   3.466
 2031SOL    MW4 8156   1.856   2.452   3.495
 2032SOL     OW 8157   1.840   2.707   3.377
 2032SOL    HW2 8158   1.889   2.774   3.426
 2032SOL    HW3 8159   1.863   2.625   3.420
 2032SOL    MW4 8160   1.850   2.705   3.389
 2033SOL     OW 8161   2.022   2.879   3.516
 2033SOL    HW2 8162   2.047   2.884   3.609
 2033SOL    HW3 8163   2.005   2.970   3.491
 2033SOL    MW4 8164   2.023   2.891   3.525
 2034SOL     OW 8165   2.018   3.142   3.362
 2034SOL    HW2 8166   2.093   3.185   3.402
 2034SOL    HW3 8167   1.942   3.179   3.407
 2034SOL    MW4 8168   2.018   3.153   3.373
 2035SOL     OW 8169   1.781   3.264   3.453
 2035SOL    HW2 8170   1.787   3.276   3.548
 2035SOL    HW3 8171   1.783   3.353   3.417
 2035SOL    MW4 8172   1.782   3.277   3.461
 2036SOL     OW 8173   1.792   3.519   3.361
 2036SOL    HW2 8174   1.710   3.560   3.387
 2036SOL    HW3 8175   1.792   3.523   3.265
 2036SOL    MW4 8176   1.781   3.525   3.352
 2037SOL     OW 8177   2.033   3.630   3.492
 2037SOL    HW2 8178   2.105   3.574   3.464
 2037SOL    HW3 8179   1.955   3.590   3.452
 2037SOL    MW4 8180   2.032   3.617   3.483
 2038SOL     OW 8181   2.016   3.872   3.354
 2038SOL    HW2 8182   1.944   3.924   3.390
 2038SOL    HW3 8183   2.010   3.788   3.400
 2038SOL    MW4 8184   2.006   3.867   3.365
 2039SOL     OW 8185   1.790   3.989   3.468
 2039SOL    HW2 8186   1.785   3.977   3.563
 2039SOL    HW3 8187   1.703   3.965   3.436
 2039SOL    MW4 8188   1.778   3.984   3.476
 2040SOL     OW 8189   1.751   4.261   3.353
 2040SOL    HW2 8190   1.766   4.170   3.378
 2040SOL    HW3 8191   1.753   4.261   3.258
 2040SOL    MW4 8192   1.753   4.249   3.344
 2041SOL     OW 8193   2.019   4.349   3.390
 2041SOL    HW2 8194   1.933   4.308   3.387
 2041SOL    HW3 8195   2.005   4.437   3.354
 2041SOL    MW4 8196   2.006   4.355   3.385
 2042SOL     OW 8197   2.488   4.648   3.370
 2042SOL    HW2 8198   2.478   4.557   3.399
 2042SOL    HW3 8199   2.456   4.648   3.280
 2042SOL    MW4 8200   2.483   4.636   3.362
 2043SOL     OW 8201   2.266   0.105   3.475
 2043SOL    HW2 8202   2.266   0.188   3.428
 2043SOL    HW3 8203   2.336   0.054   3.435
 2043SOL    MW4 8204   2.275   0.109   3.464
 2044SOL     OW 8205   2.249   0.371   3.349
 2044SOL    HW2 8206   2.315   0.407   3.407
 2044SOL    HW3 8207   2.166   0.407   3.381
 2044SOL    MW4 8208   2.247   0.380   3.361
 2045SOL     OW 8209   2.445   0.474   3.496
 2045SOL    HW2 8210   2.533   0.443   3.477
 2045SOL    HW3 8211   2.443   0.564   3.463
 2045SOL    MW4 8212   2.456   0.482   3.489
 2046SOL     OW 8213   2.473   0.727   3.393
 2046SOL    HW2 8214   2.551   0.764   3.434
 2046SOL    HW3 8215   2.482   0.748   3.300
 2046SOL    MW4 8216   2.485   0.735   3.386
 2047SOL     OW 8217   2.245   0.834   3.497
 2047SOL    HW2 8218   2.233   0.923   3.464
 2047SOL    HW3 8219   2.328   0.806   3.460
 2047SOL    MW4 8220   2.254   0.842   3.488
 2048SOL     OW 8221   2.243   1.093   3.364
 2048SOL    HW2 8222   2.323   1.128   3.402
 2048SOL    HW3 8223   2.174   1.153   3.392
 2048SOL    MW4 8224   2.244   1.105   3.373
 2049SOL     OW 8225   2.487   1.199   3.455
 2049SOL    HW2 8226   2.501   1.182   3.548
 2049SOL    HW3 8227   2.570   1.175   3.413
 2049SOL    MW4 8228   2.500   1.193   3.462
 2050SOL     OW 8229   2.465   1.470   3.422
 2050SOL    HW2 8230   2.487   1.377   3.436
 2050SOL    HW3 8231   2.472   1.483   3.328
 2050SOL    MW4 8232   2.469   1.459   3.412
 2051SOL     OW 8233   2.265   1.601   3.555
 2051SOL    HW2 8234   2.265   1.601   3.650
 2051SOL    HW3 8235   2.343   1.551   3.531
 2051SOL    MW4 8236   2.275   1.595   3.564
 2052SOL     OW 8237   2.263   1.883   3.446
 2052SOL    HW2 8238   2.278   1.791   3.471
 2052SOL    HW3 8239   2.282   1.885   3.352
 2052SOL    MW4 8240   2.268   1.871   3.437
 2053SOL     OW 8241   2.470   2.073   3.492
 2053SOL    HW2 8242   2.467   2.087   3.587
 2053SOL    HW3 8243   2.398   2.013   3.475
 2053SOL    MW4 8244   2.460   2.067   3.502
 2054SOL     OW 8245   2.406   2.341   3.426
 2054SOL    HW2 8246   2.492   2.373   3.454
 2054SOL    HW3 8247   2.410   2.246   3.439
 2054SOL    MW4 8248   2.418   2.332   3.432
 2055SOL     OW 8249   2.213   2.490   3.559
 2055SOL    HW2 8250   2.209   2.571   3.509
 2055SOL    HW3 8251   2.293   2.446   3.529
 2055SOL    MW4 8252   2.223   2.495   3.548
 2056SOL     OW 8253   2.242   2.716   3.395
 2056SOL    HW2 8254   2.168   2.773   3.412
 2056SOL    HW3 8255   2.247   2.710   3.299
 2056SOL    MW4 8256   2.233   2.722   3.385
 2057SOL     OW 8257   2.477   2.804   3.513
 2057SOL    HW2 8258   2.484   2.893   3.480
 2057SOL    HW3 8259   2.407   2.764   3.461
 2057SOL    MW4 8260   2.469   2.810   3.502
 2058SOL     OW 8261   2.443   3.073   3.416
 2058SOL    HW2 8262   2.520   3.114   3.455
 2058SOL    HW3 8263   2.452   3.089   3.322
 2058SOL    MW4 8264   2.454   3.080   3.409
 2059SOL     OW 8265   2.250   3.215   3.513
 2059SOL    HW2 8266   2.257   3.211   3.609
 2059SOL    HW3 8267   2.321   3.159   3.482
 2059SOL    MW4 8268   2.260   3.207   3.522
 2060SOL     OW 8269   2.232   3.470   3.401
 2060SOL    HW2 8270   2.251   3.384   3.438
 2060SOL    HW3 8271   2.257   3.463   3.309
 2060SOL    MW4 8272   2.238   3.458   3.394
 2061SOL     OW 8273   2.466   3.592   3.519
 2061SOL    HW2 8274   2.465   3.680   3.480
 2061SOL    HW3 8275   2.389   3.549   3.482
 2061SOL    MW4 8276   2.456   3.598   3.509
 2062SOL     OW 8277   2.494   3.838   3.419
 2062SOL    HW2 8278   2.570   3.893   3.438
 2062SOL    HW3 8279   2.419   3.896   3.436
 2062SOL    MW4 8280   2.494   3.853   3.424
 2063SOL     OW 8281   2.266   3.980   3.465
 2063SOL    HW2 8282   2.263   4.067   3.424
 2063SOL    HW3 8283   2.188   3.936   3.433
 2063SOL    MW4 8284   2.256   3.986   3.455
 2064SOL     OW 8285   2.261   4.237   3.331
 2064SOL    HW2 8286   2.174   4.268   3.354
 2064SOL    HW3 8287   2.264   4.241   3.235
 2064SOL    MW4 8288   2.250   4.242   3.321
 2065SOL     OW 8289   2.456   4.387   3.471
 2065SOL    HW2 8290   2.445   4.381   3.566
 2065SOL    HW3 8291   2.387   4.330   3.436
 2065SOL    MW4 8292   2.445   4.379   3.479
 2066SOL     OW 8293   2.937   0.004   3.403
 2066SOL    HW2 8294   2.852   0.037   3.432
 2066SOL    HW3 8295   2.932   0.006   3.308
 2066SOL    MW4 8296   2.925   0.009   3.395
 2067SOL     OW 8297   2.704   0.123   3.510
 2067SOL    HW2 8298   2.707   0.206   3.461
 2067SOL    HW3 8299   2.634   0.073   3.469
 2067SOL    MW4 8300   2.695   0.127   3.498
 2068SOL     OW 8301   2.689   0.376   3.369
 2068SOL    HW2 8302   2.768   0.428   3.386
 2068SOL    HW3 8303   2.679   0.380   3.274
 2068SOL    MW4 8304   2.698   0.384   3.359
 2069SOL     OW 8305   2.933   0.520   3.440
 2069SOL    HW2 8306   2.939   0.530   3.535
 2069SOL    HW3 8307   2.932   0.610   3.406
 2069SOL    MW4 8308   2.934   0.534   3.448
 2070SOL     OW 8309   2.954   0.783   3.383
 2070SOL    HW2 8310   3.024   0.844   3.407
 2070SOL    HW3 8311   2.873   0.831   3.398
 2070SOL    MW4 8312   2.953   0.797   3.388
 2071SOL     OW 8313   2.705   0.858   3.504
 2071SOL    HW2 8314   2.727   0.868   3.596
 2071SOL    HW3 8315   2.724   0.943   3.465
 2071SOL    MW4 8316   2.710   0.871   3.511
 2072SOL     OW 8317   2.747   1.094   3.362
 2072SOL    HW2 8318   2.805   1.153   3.410
 2072SOL    HW3 8319   2.753   1.123   3.271
 2072SOL    MW4 8320   2.755   1.106   3.356
 2073SOL     OW 8321   2.933   1.274   3.472
 2073SOL    HW2 8322   2.919   1.279   3.567
 2073SOL    HW3 8323   3.025   1.248   3.463
 2073SOL    MW4 8324   2.943   1.271   3.483
 2074SOL     OW 8325   2.954   1.540   3.396
 2074SOL    HW2 8326   2.892   1.591   3.448
 2074SOL    HW3 8327   2.949   1.452   3.433
 2074SOL    MW4 8328   2.945   1.535   3.408
 2075SOL     OW 8329   2.708   1.638   3.498
 2075SOL    HW2 8330   2.695   1.729   3.471
 2075SOL    HW3 8331   2.633   1.591   3.460
 2075SOL    MW4 8332   2.696   1.643   3.489
 2076SOL     OW 8333   2.667   1.921   3.388
 2076SOL    HW2 8334   2.593   1.978   3.409
 2076SOL    HW3 8335   2.673   1.924   3.292
 2076SOL    MW4 8336   2.658   1.929   3.378
 2077SOL     OW 8337   2.897   2.061   3.463
 2077SOL    HW2 8338   2.902   2.048   3.558
 2077SOL    HW3 8339   2.811   2.025   3.439
 2077SOL    MW4 8340   2.886   2.055   3.472
 2078SOL     OW 8341   2.907   2.322   3.362
 2078SOL    HW2 8342   2.921   2.230   3.384
 2078SOL    HW3 8343   2.892   2.322   3.267
 2078SOL    MW4 8344   2.907   2.310   3.352
 2079SOL     OW 8345   2.665   2.421   3.490
 2079SOL    HW2 8346   2.665   2.422   3.586
 2079SOL    HW3 8347   2.753   2.390   3.467
 2079SOL    MW4 8348   2.677   2.417   3.500
 2080SOL     OW 8349   2.716   2.689   3.443
 2080SOL    HW2 8350   2.717   2.601   3.481
 2080SOL    HW3 8351   2.634   2.728   3.474
 2080SOL    MW4 8352   2.705   2.683   3.452
 2081SOL     OW 8353   2.926   2.864   3.486
 2081SOL    HW2 8354   2.932   2.873   3.581
 2081SOL    HW3 8355   2.854   2.801   3.473
 2081SOL    MW4 8356   2.917   2.857   3.497
 2082SOL     OW 8357   2.902   3.139   3.403
 2082SOL    HW2 8358   2.894   3.045   3.417
 2082SOL    HW3 8359   2.912   3.149   3.309
 2082SOL    MW4 8360   2.902   3.128   3.393
 2083SOL     OW 8361   2.673   3.211   3.531
 2083SOL    HW2 8362   2.690   3.217   3.625
 2083SOL    HW3 8363   2.755   3.177   3.494
 2083SOL    MW4 8364   2.686   3.207   3.539
 2084SOL     OW 8365   2.682   3.459   3.377
 2084SOL    HW2 8366   2.692   3.390   3.443
 2084SOL    HW3 8367   2.615   3.517   3.413
 2084SOL    MW4 8368   2.674   3.458   3.391
 2085SOL     OW 8369   2.886   3.610   3.473
 2085SOL    HW2 8370   2.895   3.689   3.419
 2085SOL    HW3 8371   2.825   3.555   3.424
 2085SOL    MW4 8372   2.879   3.613   3.459
 2086SOL     OW 8373   2.927   3.852   3.376
 2086SOL    HW2 8374   3.007   3.900   3.396
 2086SOL    HW3 8375   2.857   3.908   3.409
 2086SOL    MW4 8376   2.928   3.866   3.383
 2087SOL     OW 8377   2.713   3.999   3.471
 2087SOL    HW2 8378   2.720   3.997   3.567
 2087SOL    HW3 8379   2.703   4.092   3.450
 2087SOL    MW4 8380   2.713   4.011   3.481
 2088SOL     OW 8381   2.685   4.250   3.355
 2088SOL    HW2 8382   2.761   4.297   3.388
 2088SOL    HW3 8383   2.611   4.286   3.404
 2088SOL    MW4 8384   2.685   4.261   3.366
 2089SOL     OW 8385   2.929   4.391   3.447
 2089SOL    HW2 8386   2.919   4.389   3.543
 2089SOL    HW3 8387   2.927   4.484   3.425
 2089SOL    MW4 8388   2.927   4.403   3.457
 2090SOL     OW 8389   3.402   4.642   3.368
 2090SOL    HW2 8390   3.325   4.691   3.396
 2090SOL    HW3 8391   3.403   4.652   3.273
 2090SOL    MW4 8392   3.392   4.650   3.359
 2091SOL     OW 8393   3.192   0.117   3.478
 2091SOL    HW2 8394   3.197   0.208   3.448
 2091SOL    HW3 8395   3.105   0.088   3.452
 2091SOL    MW4 8396   3.181   0.125   3.471
 2092SOL     OW 8397   3.161   0.389   3.418
 2092SOL    HW2 8398   3.077   0.426   3.447
 2092SOL    HW3 8399   3.163   0.403   3.324
 2092SOL    MW4 8400   3.150   0.396   3.410
 2093SOL     OW 8401   3.397   0.551   3.486
 2093SOL    HW2 8402   3.409   0.537   3.580
 2093SOL    HW3 8403   3.321   0.497   3.464
 2093SOL    MW4 8404   3.389   0.542   3.496
 2094SOL     OW 8405   3.403   0.799   3.360
 2094SOL    HW2 8406   3.473   0.847   3.405
 2094SOL    HW3 8407   3.406   0.711   3.398
 2094SOL    MW4 8408   3.413   0.794   3.371
 2095SOL     OW 8409   3.179   0.929   3.496
 2095SOL    HW2 8410   3.185   1.021   3.471
 2095SOL    HW3 8411   3.257   0.889   3.456
 2095SOL    MW4 8412   3.190   0.936   3.487
 2096SOL     OW 8413   3.190   1.204   3.440
 2096SOL    HW2 8414   3.272   1.250   3.460
 2096SOL    HW3 8415   3.200   1.178   3.348
 2096SOL    MW4 8416   3.202   1.207   3.431
 2097SOL     OW 8417   3.426   1.338   3.556
 2097SOL    HW2 8418   3.495   1.300   3.501
 2097SOL    HW3 8419   3.403   1.420   3.512
 2097SOL    MW4 8420   3.432   1.344   3.543
 2098SOL     OW 8421   3.376   1.568   3.399
 2098SOL    HW2 8422   3.452   1.626   3.404
 2098SOL    HW3 8423   3.309   1.611   3.452
 2098SOL    MW4 8424   3.377   1.581   3.406
 2099SOL     OW 8425   3.162   1.689   3.523
 2099SOL    HW2 8426   3.172   1.771   3.474
 2099SOL    HW3 8427   3.094   1.641   3.476
 2099SOL    MW4 8428   3.154   1.694   3.510
 2100SOL     OW 8429   3.152   1.936   3.382
 2100SOL    HW2 8430   3.063   1.965   3.397
 2100SOL    HW3 8431   3.167   1.950   3.288
 2100SOL    MW4 8432   3.143   1.942   3.372
 2101SOL     OW 8433   3.365   2.071   3.499
 2101SOL    HW2 8434   3.342   2.159   3.469
 2101SOL    HW3 8435   3.297   2.015   3.461
 2101SOL    MW4 8436   3.353   2.076   3.490
 2102SOL     OW 8437   3.348   2.342   3.400
 2102SOL    HW2 8438   3.414   2.408   3.423
 2102SOL    HW3 8439   3.265   2.382   3.427
 2102SOL    MW4 8440   3.346   2.356   3.407
 2103SOL     OW 8441   3.117   2.470   3.480
 2103SOL    HW2 8442   3.123   2.555   3.435
 2103SOL    HW3 8443   3.043   2.426   3.438
 2103SOL    MW4 8444   3.108   2.476   3.468
 2104SOL     OW 8445   3.153   2.736   3.403
 2104SOL    HW2 8446   3.226   2.782   3.445
 2104SOL    HW3 8447   3.076   2.764   3.452
 2104SOL    MW4 8448   3.152   2.746   3.415
 2105SOL     OW 8449   3.373   2.895   3.491
 2105SOL    HW2 8450   3.428   2.845   3.431
 2105SOL    HW3 8451   3.366   2.981   3.450
 2105SOL    MW4 8452   3.379   2.900   3.478
 2106SOL     OW 8453   3.355   3.154   3.362
 2106SOL    HW2 8454   3.431   3.170   3.418
 2106SOL    HW3 8455   3.283   3.198   3.408
 2106SOL    MW4 8456   3.355   3.162   3.376
 2107SOL     OW 8457   3.164   3.260   3.512
 2107SOL    HW2 8458   3.172   3.353   3.490
 2107SOL    HW3 8459   3.085   3.231   3.466
 2107SOL    MW4 8460   3.155   3.268   3.503
 2108SOL     OW 8461   3.147   3.528   3.426
 2108SOL    HW2 8462   3.058   3.559   3.442
 2108SOL    HW3 8463   3.147   3.501   3.335
 2108SOL    MW4 8464   3.135   3.528   3.416
 2109SOL     OW 8465   3.395   3.641   3.483
 2109SOL    HW2 8466   3.394   3.723   3.433
 2109SOL    HW3 8467   3.316   3.595   3.455
 2109SOL    MW4 8468   3.385   3.646   3.473
 2110SOL     OW 8469   3.353   3.885   3.347
 2110SOL    HW2 8470   3.414   3.951   3.381
 2110SOL    HW3 8471   3.270   3.906   3.390
 2110SOL    MW4 8472   3.350   3.897   3.357
 2111SOL     OW 8473   3.138   3.990   3.465
 2111SOL    HW2 8474   3.128   4.005   3.559
 2111SOL    HW3 8475   3.168   4.074   3.431
 2111SOL    MW4 8476   3.141   4.003   3.473
 2112SOL     OW 8477   3.171   4.255   3.380
 2112SOL    HW2 8478   3.247   4.295   3.423
 2112SOL    HW3 8479   3.096   4.304   3.413
 2112SOL    MW4 8480   3.171   4.266   3.390
 2113SOL     OW 8481   3.386   4.399   3.486
 2113SOL    HW2 8482   3.381   4.431   3.576
 2113SOL    HW3 8483   3.389   4.478   3.433
 2113SOL    MW4 8484   3.385   4.414   3.491
 2114SOL     OW 8485   3.832   4.627   3.407
 2114SOL    HW2 8486   3.763   4.669   3.457
 2114SOL    HW3 8487   3.810   4.645   3.315
 2114SOL    MW4 8488   3.820   4.635   3.401
 2115SOL     OW 8489   3.626   0.109   3.502
 2115SOL    HW2 8490   3.617   0.204   3.490
 2115SOL    HW3 8491   3.552   0.071   3.454
 2115SOL    MW4 8492   3.615   0.117   3.494
 2116SOL     OW 8493   3.599   0.380   3.428
 2116SOL    HW2 8494   3.675   0.430   3.456
 2116SOL    HW3 8495   3.524   0.437   3.446
 2116SOL    MW4 8496   3.599   0.394   3.434
 2117SOL     OW 8497   3.843   0.546   3.515
 2117SOL    HW2 8498   3.861   0.539   3.609
 2117SOL    HW3 8499   3.912   0.493   3.475
 2117SOL    MW4 8500   3.855   0.538   3.522
 2118SOL     OW 8501   3.825   0.792   3.398
 2118SOL    HW2 8502   3.901   0.834   3.438
 2118SOL    HW3 8503   3.824   0.703   3.434
 2118SOL    MW4 8504   3.835   0.786   3.408
 2119SOL     OW 8505   3.605   0.942   3.495
 2119SOL    HW2 8506   3.607   0.926   3.589
 2119SOL    HW3 8507   3.677   0.889   3.461
 2119SOL    MW4 8508   3.615   0.933   3.503
 2120SOL     OW 8509   3.588   1.199   3.387
 2120SOL    HW2 8510   3.588   1.113   3.429
 2120SOL    HW3 8511   3.591   1.181   3.293
 2120SOL    MW4 8512   3.588   1.186   3.380
 2121SOL     OW 8513   3.844   1.304   3.461
 2121SOL    HW2 8514   3.846   1.336   3.551
 2121SOL    HW3 8515   3.757   1.266   3.451
 2121SOL    MW4 8516   3.833   1.303   3.471
 2122SOL     OW 8517   3.813   1.593   3.370
 2122SOL    HW2 8518   3.900   1.622   3.396
 2122SOL    HW3 8519   3.809   1.501   3.398
 2122SOL    MW4 8520   3.824   1.584   3.378
 2123SOL     OW 8521   3.586   1.715   3.489
 2123SOL    HW2 8522   3.593   1.799   3.444
 2123SOL    HW3 8523   3.667   1.669   3.467
 2123SOL    MW4 8524   3.598   1.720   3.480
 2124SOL     OW 8525   3.572   1.953   3.367
 2124SOL    HW2 8526   3.650   1.996   3.402
 2124SOL    HW3 8527   3.499   1.995   3.413
 2124SOL    MW4 8528   3.572   1.964   3.378
 2125SOL     OW 8529   3.791   2.058   3.470
 2125SOL    HW2 8530   3.799   2.086   3.562
 2125SOL    HW3 8531   3.852   1.985   3.462
 2125SOL    MW4 8532   3.800   2.052   3.481
 2126SOL     OW 8533   3.809   2.304   3.356
 2126SOL    HW2 8534   3.888   2.342   3.395
 2126SOL    HW3 8535   3.805   2.215   3.390
 2126SOL    MW4 8536   3.819   2.297   3.365
 2127SOL     OW 8537   3.606   2.475   3.493
 2127SOL    HW2 8538   3.592   2.563   3.459
 2127SOL    HW3 8539   3.681   2.442   3.444
 2127SOL    MW4 8540   3.614   2.483   3.482
 2128SOL     OW 8541   3.557   2.726   3.360
 2128SOL    HW2 8542   3.645   2.758   3.378
 2128SOL    HW3 8543   3.549   2.730   3.265
 2128SOL    MW4 8544   3.567   2.731   3.350
 2129SOL     OW 8545   3.801   2.850   3.438
 2129SOL    HW2 8546   3.798   2.845   3.533
 2129SOL    HW3 8547   3.792   2.943   3.418
 2129SOL    MW4 8548   3.800   2.862   3.448
 2130SOL     OW 8549   3.806   3.118   3.383
 2130SOL    HW2 8550   3.885   3.162   3.416
 2130SOL    HW3 8551   3.804   3.141   3.290
 2130SOL    MW4 8552   3.816   3.127   3.375
 2131SOL     OW 8553   3.594   3.241   3.491
 2131SOL    HW2 8554   3.597   3.331   3.459
 2131SOL    HW3 8555   3.664   3.197   3.444
 2131SOL    MW4 8556   3.603   3.247   3.481
 2132SOL     OW 8557   3.613   3.493   3.381
 2132SOL    HW2 8558   3.554   3.555   3.423
 2132SOL    HW3 8559   3.590   3.496   3.289
 2132SOL    MW4 8560   3.602   3.501   3.375
 2133SOL     OW 8561   3.839   3.624   3.473
 2133SOL    HW2 8562   3.847   3.613   3.568
 2133SOL    HW3 8563   3.752   3.591   3.452
 2133SOL    MW4 8564   3.829   3.618   3.483
 2134SOL     OW 8565   3.796   3.863   3.351
 2134SOL    HW2 8566   3.726   3.915   3.392
 2134SOL    HW3 8567   3.797   3.781   3.400
 2134SOL    MW4 8568   3.787   3.859   3.363
 2135SOL     OW 8569   3.574   4.026   3.466
 2135SOL    HW2 8570   3.570   4.028   3.561
 2135SOL    HW3 8571   3.612   4.110   3.441
 2135SOL    MW4 8572   3.579   4.037   3.475
 2136SOL     OW 8573   3.632   4.289   3.387
 2136SOL    HW2 8574   3.549   4.315   3.427
 2136SOL    HW3 8575   3.627   4.324   3.298
 2136SOL    MW4 8576   3.620   4.297   3.381
 2137SOL     OW 8577   3.816   4.392   3.553
 2137SOL    HW2 8578   3.751   4.339   3.507
 2137SOL    HW3 8579   3.826   4.470   3.498
 2137SOL    MW4 8580   3.809   4.395   3.540
 2138SOL     OW 8581   4.281   4.654   3.386
 2138SOL    HW2 8582   4.299   4.563   3.410
 2138SOL    HW3 8583   4.361   4.702   3.410
 2138SOL    MW4 8584   4.294   4.649   3.393
 2139SOL     OW 8585   4.049   0.121   3.496
 2139SOL    HW2 8586   4.121   0.071   3.458
 2139SOL    HW3 8587   3.971   0.071   3.472
 2139SOL    MW4 8588   4.048   0.108   3.488
 2140SOL     OW 8589   4.032   0.382   3.401
 2140SOL    HW2 8590   4.043   0.298   3.445
 2140SOL    HW3 8591   3.998   0.360   3.314
 2140SOL    MW4 8592   4.029   0.368   3.395
 2141SOL     OW 8593   4.255   0.538   3.483
 2141SOL    HW2 8594   4.249   0.627   3.447
 2141SOL    HW3 8595   4.177   0.493   3.449
 2141SOL    MW4 8596   4.244   0.544   3.474
 2142SOL     OW 8597   4.253   0.804   3.405
 2142SOL    HW2 8598   4.334   0.843   3.438
 2142SOL    HW3 8599   4.260   0.811   3.310
 2142SOL    MW4 8600   4.265   0.810   3.397
 2143SOL     OW 8601   4.031   0.931   3.519
 2143SOL    HW2 8602   3.999   1.010   3.475
 2143SOL    HW3 8603   4.114   0.911   3.476
 2143SOL    MW4 8604   4.038   0.939   3.508
 2144SOL     OW 8605   4.047   1.162   3.354
 2144SOL    HW2 8606   4.131   1.183   3.393
 2144SOL    HW3 8607   3.985   1.221   3.396
 2144SOL    MW4 8608   4.050   1.172   3.365
 2145SOL     OW 8609   4.269   1.308   3.477
 2145SOL    HW2 8610   4.270   1.395   3.438
 2145SOL    HW3 8611   4.355   1.272   3.456
 2145SOL    MW4 8612   4.281   1.315   3.469
 2146SOL     OW 8613   4.299   1.573   3.383
 2146SOL    HW2 8614   4.215   1.603   3.420
 2146SOL    HW3 8615   4.282   1.565   3.289
 2146SOL    MW4 8616   4.286   1.576   3.376
 2147SOL     OW 8617   4.058   1.659   3.478
 2147SOL    HW2 8618   4.047   1.647   3.572
 2147SOL    HW3 8619   4.060   1.754   3.465
 2147SOL    MW4 8620   4.057   1.670   3.488
 2148SOL     OW 8621   4.053   1.923   3.413
 2148SOL    HW2 8622   4.133   1.968   3.440
 2148SOL    HW3 8623   4.043   1.946   3.321
 2148SOL    MW4 8624   4.062   1.932   3.405
 2149SOL     OW 8625   4.282   2.042   3.498
 2149SOL    HW2 8626   4.282   2.131   3.462
 2149SOL    HW3 8627   4.369   2.008   3.476
 2149SOL    MW4 8628   4.294   2.050   3.490
 2150SOL     OW 8629   4.279   2.299   3.371
 2150SOL    HW2 8630   4.195   2.316   3.414
 2150SOL    HW3 8631   4.269   2.337   3.284
 2150SOL    MW4 8632   4.266   2.306   3.365
 2151SOL     OW 8633   4.038   2.419   3.478
 2151SOL    HW2 8634   4.026   2.418   3.573
 2151SOL    HW3 8635   4.051   2.512   3.457
 2151SOL    MW4 8636   4.039   2.431   3.488
 2152SOL     OW 8637   4.039   2.656   3.384
 2152SOL    HW2 8638   4.117   2.709   3.402
 2152SOL    HW3 8639   3.966   2.711   3.414
 2152SOL    MW4 8640   4.040   2.670   3.390
 2153SOL     OW 8641   4.266   2.810   3.432
 2153SOL    HW2 8642   4.277   2.827   3.525
 2153SOL    HW3 8643   4.338   2.752   3.409
 2153SOL    MW4 8644   4.277   2.805   3.441
 2154SOL     OW 8645   4.273   3.087   3.378
 2154SOL    HW2 8646   4.272   2.991   3.383
 2154SOL    HW3 8647   4.238   3.106   3.291
 2154SOL    MW4 8648   4.269   3.077   3.367
 2155SOL     OW 8649   4.048   3.235   3.478
 2155SOL    HW2 8650   4.055   3.320   3.436
 2155SOL    HW3 8651   4.122   3.185   3.443
 2155SOL    MW4 8652   4.059   3.240   3.468
 2156SOL     OW 8653   4.061   3.489   3.368
 2156SOL    HW2 8654   4.139   3.528   3.405
 2156SOL    HW3 8655   3.988   3.538   3.406
 2156SOL    MW4 8656   4.061   3.500   3.378
 2157SOL     OW 8657   4.294   3.596   3.522
 2157SOL    HW2 8658   4.287   3.612   3.616
 2157SOL    HW3 8659   4.289   3.683   3.483
 2157SOL    MW4 8660   4.292   3.610   3.529
 2158SOL     OW 8661   4.266   3.845   3.361
 2158SOL    HW2 8662   4.326   3.908   3.402
 2158SOL    HW3 8663   4.266   3.868   3.268
 2158SOL    MW4 8664   4.274   3.856   3.354
 2159SOL     OW 8665   4.035   3.972   3.444
 2159SOL    HW2 8666   4.115   3.927   3.414
 2159SOL    HW3 8667   3.963   3.919   3.409
 2159SOL    MW4 8668   4.036   3.959   3.435
 2160SOL     OW 8669   4.036   4.253   3.400
 2160SOL    HW2 8670   4.048   4.158   3.399
 2160SOL    HW3 8671   3.952   4.267   3.442
 2160SOL    MW4 8672   4.027   4.243   3.405
 2161SOL     OW 8673   4.281   4.387   3.473
 2161SOL    HW2 8674   4.276   4.387   3.568
 2161SOL    HW3 8675   4.196   4.351   3.445
 2161SOL    MW4 8676   4.269   4.382   3.482
 2162SOL     OW 8677   0.246   4.637   3.884
 2162SOL    HW2 8678   0.229   4.628   3.978
 2162SOL    HW3 8679   0.174   4.691   3.851
 2162SOL    MW4 8680   0.234   4.643   3.892
 2163SOL     OW 8681   0.037   0.129   3.792
 2163SOL    HW2 8682   0.050   0.224   3.799
 2163SOL    HW3 8683   0.020   0.114   3.699
 2163SOL    MW4 8684   0.036   0.140   3.781
 2164SOL     OW 8685   0.056   0.421   3.802
 2164SOL    HW2 8686  -0.028   0.465   3.786
 2164SOL    HW3 8687   0.122   0.486   3.778
 2164SOL    MW4 8688   0.053   0.435   3.797
 2165SOL     OW 8689   0.285   0.564   3.732
 2165SOL    HW2 8690   0.281   0.656   3.755
 2165SOL    HW3 8691   0.288   0.563   3.636
 2165SOL    MW4 8692   0.285   0.576   3.722
 2166SOL     OW 8693   0.278   0.821   3.854
 2166SOL    HW2 8694   0.289   0.769   3.934
 2166SOL    HW3 8695   0.185   0.840   3.850
 2166SOL    MW4 8696   0.267   0.816   3.864
 2167SOL     OW 8697   0.039   0.871   3.766
 2167SOL    HW2 8698  -0.038   0.823   3.797
 2167SOL    HW3 8699   0.022   0.962   3.789
 2167SOL    MW4 8700   0.027   0.876   3.773
 2168SOL     OW 8701   0.013   1.144   3.874
 2168SOL    HW2 8702  -0.054   1.211   3.858
 2168SOL    HW3 8703   0.090   1.176   3.828
 2168SOL    MW4 8704   0.014   1.157   3.866
 2169SOL     OW 8705   0.225   1.279   3.741
 2169SOL    HW2 8706   0.237   1.368   3.777
 2169SOL    HW3 8707   0.219   1.292   3.647
 2169SOL    MW4 8708   0.226   1.293   3.733
 2170SOL     OW 8709   0.288   1.541   3.837
 2170SOL    HW2 8710   0.294   1.511   3.928
 2170SOL    HW3 8711   0.203   1.584   3.831
 2170SOL    MW4 8712   0.278   1.543   3.848
 2171SOL     OW 8713   0.044   1.674   3.778
 2171SOL    HW2 8714   0.026   1.765   3.799
 2171SOL    HW3 8715   0.056   1.673   3.683
 2171SOL    MW4 8716   0.043   1.686   3.768
 2172SOL     OW 8717   4.468   1.930   3.835
 2172SOL    HW2 8718   4.471   1.923   3.931
 2172SOL    HW3 8719   4.381   1.964   3.816
 2172SOL    MW4 8720   4.457   1.933   3.845
 2173SOL     OW 8721   0.209   2.053   3.748
 2173SOL    HW2 8722   0.174   2.143   3.750
 2173SOL    HW3 8723   0.137   1.999   3.778
 2173SOL    MW4 8724   0.195   2.058   3.752
 2174SOL     OW 8725   0.232   2.324   3.806
 2174SOL    HW2 8726   0.220   2.308   3.899
 2174SOL    HW3 8727   0.146   2.353   3.775
 2174SOL    MW4 8728   0.219   2.326   3.814
 2175SOL     OW 8729   0.005   2.463   3.737
 2175SOL    HW2 8730  -0.072   2.425   3.781
 2175SOL    HW3 8731   0.001   2.556   3.757
 2175SOL    MW4 8732  -0.006   2.470   3.745
 2176SOL     OW 8733   0.009   2.734   3.800
 2176SOL    HW2 8734   0.002   2.731   3.895
 2176SOL    HW3 8735   0.082   2.793   3.783
 2176SOL    MW4 8736   0.017   2.741   3.810
 2177SOL     OW 8737   0.237   2.891   3.727
 2177SOL    HW2 8738   0.294   2.825   3.767
 2177SOL    HW3 8739   0.238   2.869   3.634
 2177SOL    MW4 8740   0.245   2.879   3.720
 2178SOL     OW 8741   0.258   3.109   3.883
 2178SOL    HW2 8742   0.250   3.070   3.970
 2178SOL    HW3 8743   0.249   3.035   3.823
 2178SOL    MW4 8744   0.256   3.094   3.887
 2179SOL     OW 8745   0.003   3.226   3.798
 2179SOL    HW2 8746   0.074   3.169   3.828
 2179SOL    HW3 8747   0.001   3.213   3.703
 2179SOL    MW4 8748   0.012   3.217   3.790
 2180SOL     OW 8749   4.477   3.500   3.872
 2180SOL    HW2 8750   4.542   3.529   3.808
 2180SOL    HW3 8751   4.469   3.406   3.856
 2180SOL    MW4 8752   4.484   3.491   3.861
 2181SOL     OW 8753   0.191   3.624   3.722
 2181SOL    HW2 8754   0.262   3.564   3.744
 2181SOL    HW3 8755   0.203   3.697   3.783
 2181SOL    MW4 8756   0.202   3.626   3.733
 2182SOL     OW 8757   0.239   3.898   3.874
 2182SOL    HW2 8758   0.250   3.877   3.967
 2182SOL    HW3 8759   0.312   3.956   3.853
 2182SOL    MW4 8760   0.250   3.903   3.884
 2183SOL     OW 8761   0.010   4.018   3.785
 2183SOL    HW2 8762  -0.064   3.962   3.810
 2183SOL    HW3 8763   0.085   3.978   3.829
 2183SOL    MW4 8764   0.010   4.005   3.794
 2184SOL     OW 8765   0.036   4.278   3.903
 2184SOL    HW2 8766   0.119   4.314   3.870
 2184SOL    HW3 8767   0.034   4.189   3.869
 2184SOL    MW4 8768   0.047   4.271   3.895
 2185SOL     OW 8769   0.282   4.406   3.752
 2185SOL    HW2 8770   0.360   4.375   3.799
 2185SOL    HW3 8771   0.282   4.501   3.766
 2185SOL    MW4 8772   0.293   4.414   3.760
 2186SOL     OW 8773   0.660   4.655   3.914
 2186SOL    HW2 8774   0.650   4.568   3.875
 2186SOL    HW3 8775   0.588   4.707   3.876
 2186SOL    MW4 8776   0.649   4.651   3.904
 2187SOL     OW 8777   0.455   0.114   3.781
 2187SOL    HW2 8778   0.445   0.204   3.810
 2187SOL    HW3 8779   0.383   0.067   3.823
 2187SOL    MW4 8780   0.444   0.119   3.791
 2188SOL     OW 8781   0.436   0.373   3.847
 2188SOL    HW2 8782   0.508   0.404   3.792
 2188SOL    HW3 8783   0.370   0.441   3.840
 2188SOL    MW4 8784   0.437   0.386   3.839
 2189SOL     OW 8785   0.660   0.485   3.730
 2189SOL    HW2 8786   0.732   0.447   3.779
 2189SOL    HW3 8787   0.665   0.579   3.748
 2189SOL    MW4 8788   0.670   0.493   3.739
 2190SOL     OW 8789   0.618   0.753   3.799
 2190SOL    HW2 8790   0.705   0.791   3.814
 2190SOL    HW3 8791   0.565   0.826   3.768
 2190SOL    MW4 8792   0.623   0.768   3.797
 2191SOL     OW 8793   0.465   0.954   3.706
 2191SOL    HW2 8794   0.484   1.043   3.735
 2191SOL    HW3 8795   0.395   0.924   3.764
 2191SOL    MW4 8796   0.458   0.962   3.718
 2192SOL     OW 8797   0.485   1.194   3.848
 2192SOL    HW2 8798   0.567   1.235   3.819
 2192SOL    HW3 8799   0.417   1.252   3.815
 2192SOL    MW4 8800   0.487   1.207   3.840
 2193SOL     OW 8801   0.707   1.319   3.748
 2193SOL    HW2 8802   0.772   1.253   3.774
 2193SOL    HW3 8803   0.696   1.307   3.654
 2193SOL    MW4 8804   0.714   1.309   3.739
 2194SOL     OW 8805   0.694   1.578   3.841
 2194SOL    HW2 8806   0.776   1.627   3.843
 2194SOL    HW3 8807   0.716   1.496   3.796
 2194SOL    MW4 8808   0.708   1.574   3.836
 2195SOL     OW 8809   0.480   1.725   3.727
 2195SOL    HW2 8810   0.559   1.683   3.759
 2195SOL    HW3 8811   0.408   1.672   3.762
 2195SOL    MW4 8812   0.481   1.713   3.736
 2196SOL     OW 8813   0.447   1.958   3.878
 2196SOL    HW2 8814   0.456   1.871   3.841
 2196SOL    HW3 8815   0.372   1.996   3.831
 2196SOL    MW4 8816   0.438   1.952   3.867
 2197SOL     OW 8817   0.683   2.049   3.748
 2197SOL    HW2 8818   0.682   2.143   3.764
 2197SOL    HW3 8819   0.599   2.017   3.782
 2197SOL    MW4 8820   0.672   2.057   3.755
 2198SOL     OW 8821   0.697   2.331   3.765
 2198SOL    HW2 8822   0.759   2.395   3.730
 2198SOL    HW3 8823   0.611   2.372   3.754
 2198SOL    MW4 8824   0.694   2.345   3.759
 2199SOL     OW 8825   0.461   2.462   3.730
 2199SOL    HW2 8826   0.390   2.413   3.770
 2199SOL    HW3 8827   0.443   2.458   3.636
 2199SOL    MW4 8828   0.449   2.455   3.722
 2200SOL     OW 8829   0.437   2.723   3.834
 2200SOL    HW2 8830   0.519   2.762   3.804
 2200SOL    HW3 8831   0.439   2.633   3.802
 2200SOL    MW4 8832   0.448   2.716   3.826
 2201SOL     OW 8833   0.660   2.855   3.768
 2201SOL    HW2 8834   0.723   2.792   3.803
 2201SOL    HW3 8835   0.673   2.852   3.673
 2201SOL    MW4 8836   0.670   2.846   3.760
 2202SOL     OW 8837   0.726   3.110   3.850
 2202SOL    HW2 8838   0.721   3.101   3.945
 2202SOL    HW3 8839   0.721   3.021   3.817
 2202SOL    MW4 8840   0.725   3.097   3.858
 2203SOL     OW 8841   0.480   3.210   3.743
 2203SOL    HW2 8842   0.565   3.170   3.760
 2203SOL    HW3 8843   0.418   3.159   3.794
 2203SOL    MW4 8844   0.483   3.198   3.752
 2204SOL     OW 8845   0.438   3.493   3.800
 2204SOL    HW2 8846   0.529   3.518   3.808
 2204SOL    HW3 8847   0.441   3.399   3.780
 2204SOL    MW4 8848   0.450   3.484   3.798
 2205SOL     OW 8849   0.708   3.610   3.791
 2205SOL    HW2 8850   0.682   3.698   3.816
 2205SOL    HW3 8851   0.718   3.613   3.696
 2205SOL    MW4 8852   0.706   3.622   3.782
 2206SOL     OW 8853   0.651   3.864   3.870
 2206SOL    HW2 8854   0.644   3.873   3.965
 2206SOL    HW3 8855   0.736   3.902   3.849
 2206SOL    MW4 8856   0.661   3.870   3.880
 2207SOL     OW 8857   0.481   4.055   3.752
 2207SOL    HW2 8858   0.525   3.974   3.780
 2207SOL    HW3 8859   0.458   4.039   3.661
 2207SOL    MW4 8860   0.484   4.042   3.744
 2208SOL     OW 8861   0.468   4.264   3.921
 2208SOL    HW2 8862   0.548   4.307   3.892
 2208SOL    HW3 8863   0.466   4.181   3.873
 2208SOL    MW4 8864   0.478   4.258   3.911
 2209SOL     OW 8865   0.674   4.417   3.794
 2209SOL    HW2 8866   0.752   4.366   3.818
 2209SOL    HW3 8867   0.663   4.401   3.700
 2209SOL    MW4 8868   0.683   4.408   3.785
 2210SOL     OW 8869   1.075   4.629   3.859
 2210SOL    HW2 8870   1.149   4.676   3.821
 2210SOL    HW3 8871   1.089   4.538   3.833
 2210SOL    MW4 8872   1.087   4.623   3.851
 2211SOL     OW 8873   0.863   0.104   3.791
 2211SOL    HW2 8874   0.939   0.057   3.825
 2211SOL    HW3 8875   0.788   0.065   3.838
 2211SOL    MW4 8876   0.863   0.093   3.802
 2212SOL     OW 8877   0.881   0.360   3.869
 2212SOL    HW2 8878   0.892   0.345   3.963
 2212SOL    HW3 8879   0.869   0.272   3.833
 2212SOL    MW4 8880   0.881   0.346   3.877
 2213SOL     OW 8881   1.099   0.480   3.743
 2213SOL    HW2 8882   1.178   0.438   3.777
 2213SOL    HW3 8883   1.029   0.448   3.800
 2213SOL    MW4 8884   1.100   0.470   3.755
 2214SOL     OW 8885   1.111   0.763   3.848
 2214SOL    HW2 8886   1.115   0.753   3.943
 2214SOL    HW3 8887   1.103   0.674   3.815
 2214SOL    MW4 8888   1.111   0.750   3.856
 2215SOL     OW 8889   0.861   0.849   3.771
 2215SOL    HW2 8890   0.946   0.818   3.804
 2215SOL    HW3 8891   0.863   0.831   3.678
 2215SOL    MW4 8892   0.873   0.843   3.763
 2216SOL     OW 8893   0.868   1.122   3.859
 2216SOL    HW2 8894   0.893   1.124   3.951
 2216SOL    HW3 8895   0.862   1.029   3.837
 2216SOL    MW4 8896   0.870   1.110   3.868
 2217SOL     OW 8897   1.090   1.232   3.749
 2217SOL    HW2 8898   1.094   1.316   3.794
 2217SOL    HW3 8899   1.016   1.187   3.791
 2217SOL    MW4 8900   1.081   1.237   3.760
 2218SOL     OW 8901   1.165   1.476   3.859
 2218SOL    HW2 8902   1.168   1.488   3.954
 2218SOL    HW3 8903   1.244   1.518   3.827
 2218SOL    MW4 8904   1.176   1.483   3.867
 2219SOL     OW 8905   0.931   1.677   3.793
 2219SOL    HW2 8906   0.991   1.612   3.829
 2219SOL    HW3 8907   0.947   1.674   3.698
 2219SOL    MW4 8908   0.941   1.668   3.785
 2220SOL     OW 8909   0.945   1.966   3.862
 2220SOL    HW2 8910   0.953   1.874   3.837
 2220SOL    HW3 8911   0.859   1.992   3.828
 2220SOL    MW4 8912   0.935   1.957   3.854
 2221SOL     OW 8913   1.188   2.063   3.779
 2221SOL    HW2 8914   1.099   2.037   3.804
 2221SOL    HW3 8915   1.188   2.058   3.683
 2221SOL    MW4 8916   1.176   2.059   3.770
 2222SOL     OW 8917   1.141   2.320   3.870
 2222SOL    HW2 8918   1.134   2.313   3.965
 2222SOL    HW3 8919   1.157   2.230   3.841
 2222SOL    MW4 8920   1.142   2.307   3.879
 2223SOL     OW 8921   0.948   2.474   3.736
 2223SOL    HW2 8922   0.940   2.558   3.781
 2223SOL    HW3 8923   1.015   2.427   3.786
 2223SOL    MW4 8924   0.956   2.479   3.749
 2224SOL     OW 8925   0.872   2.722   3.853
 2224SOL    HW2 8926   0.892   2.718   3.946
 2224SOL    HW3 8927   0.951   2.757   3.812
 2224SOL    MW4 8928   0.885   2.726   3.860
 2225SOL     OW 8929   1.111   2.816   3.740
 2225SOL    HW2 8930   1.200   2.805   3.774
 2225SOL    HW3 8931   1.093   2.909   3.751
 2225SOL    MW4 8932   1.121   2.826   3.746
 2226SOL     OW 8933   1.113   3.061   3.832
 2226SOL    HW2 8934   1.195   3.107   3.812
 2226SOL    HW3 8935   1.045   3.124   3.811
 2226SOL    MW4 8936   1.115   3.075   3.826
 2227SOL     OW 8937   0.931   3.272   3.760
 2227SOL    HW2 8938   0.865   3.217   3.803
 2227SOL    HW3 8939   0.921   3.253   3.666
 2227SOL    MW4 8940   0.921   3.262   3.753
 2228SOL     OW 8941   0.929   3.503   3.930
 2228SOL    HW2 8942   0.947   3.414   3.901
 2228SOL    HW3 8943   0.844   3.525   3.892
 2228SOL    MW4 8944   0.920   3.494   3.921
 2229SOL     OW 8945   1.116   3.589   3.733
 2229SOL    HW2 8946   1.121   3.676   3.774
 2229SOL    HW3 8947   1.039   3.549   3.773
 2229SOL    MW4 8948   1.107   3.595   3.744
 2230SOL     OW 8949   1.103   3.859   3.854
 2230SOL    HW2 8950   1.123   3.823   3.940
 2230SOL    HW3 8951   1.178   3.914   3.833
 2230SOL    MW4 8952   1.116   3.861   3.862
 2231SOL     OW 8953   0.869   4.001   3.782
 2231SOL    HW2 8954   0.946   3.952   3.809
 2231SOL    HW3 8955   0.872   4.001   3.686
 2231SOL    MW4 8956   0.879   3.994   3.773
 2232SOL     OW 8957   0.894   4.265   3.871
 2232SOL    HW2 8958   0.946   4.264   3.951
 2232SOL    HW3 8959   0.888   4.174   3.843
 2232SOL    MW4 8960   0.900   4.253   3.878
 2233SOL     OW 8961   1.101   4.383   3.746
 2233SOL    HW2 8962   1.026   4.337   3.783
 2233SOL    HW3 8963   1.079   4.396   3.654
 2233SOL    MW4 8964   1.088   4.378   3.738
 2234SOL     OW 8965   1.534   4.649   3.820
 2234SOL    HW2 8966   1.530   4.651   3.916
 2234SOL    HW3 8967   1.554   4.557   3.800
 2234SOL    MW4 8968   1.536   4.637   3.830
 2235SOL     OW 8969   1.293   0.095   3.742
 2235SOL    HW2 8970   1.306   0.183   3.777
 2235SOL    HW3 8971   1.371   0.047   3.770
 2235SOL    MW4 8972   1.305   0.100   3.750
 2236SOL     OW 8973   1.336   0.367   3.839
 2236SOL    HW2 8974   1.362   0.356   3.930
 2236SOL    HW3 8975   1.415   0.396   3.794
 2236SOL    MW4 8976   1.349   0.369   3.845
 2237SOL     OW 8977   1.561   0.460   3.709
 2237SOL    HW2 8978   1.644   0.425   3.738
 2237SOL    HW3 8979   1.555   0.546   3.749
 2237SOL    MW4 8980   1.571   0.467   3.718
 2238SOL     OW 8981   1.558   0.705   3.861
 2238SOL    HW2 8982   1.635   0.748   3.822
 2238SOL    HW3 8983   1.486   0.767   3.845
 2238SOL    MW4 8984   1.559   0.719   3.854
 2239SOL     OW 8985   1.352   0.868   3.743
 2239SOL    HW2 8986   1.341   0.963   3.748
 2239SOL    HW3 8987   1.281   0.833   3.798
 2239SOL    MW4 8988   1.341   0.876   3.751
 2240SOL     OW 8989   1.358   1.147   3.771
 2240SOL    HW2 8990   1.430   1.209   3.764
 2240SOL    HW3 8991   1.280   1.202   3.778
 2240SOL    MW4 8992   1.357   1.162   3.771
 2241SOL     OW 8993   1.612   1.269   3.703
 2241SOL    HW2 8994   1.663   1.213   3.760
 2241SOL    HW3 8995   1.615   1.356   3.744
 2241SOL    MW4 8996   1.619   1.273   3.716
 2242SOL     OW 8997   1.587   1.513   3.832
 2242SOL    HW2 8998   1.581   1.518   3.928
 2242SOL    HW3 8999   1.671   1.554   3.812
 2242SOL    MW4 9000   1.597   1.519   3.842
 2243SOL     OW 9001   1.381   1.658   3.756
 2243SOL    HW2 9002   1.408   1.735   3.806
 2243SOL    HW3 9003   1.452   1.595   3.768
 2243SOL    MW4 9004   1.394   1.660   3.764
 2244SOL     OW 9005   1.407   1.907   3.864
 2244SOL    HW2 9006   1.414   1.907   3.959
 2244SOL    HW3 9007   1.320   1.944   3.846
 2244SOL    MW4 9008   1.397   1.912   3.874
 2245SOL     OW 9009   1.600   2.091   3.785
 2245SOL    HW2 9010   1.530   2.031   3.811
 2245SOL    HW3 9011   1.596   2.092   3.689
 2245SOL    MW4 9012   1.590   2.083   3.776
 2246SOL     OW 9013   1.578   2.356   3.909
 2246SOL    HW2 9014   1.664   2.388   3.884
 2246SOL    HW3 9015   1.575   2.267   3.874
 2246SOL    MW4 9016   1.589   2.348   3.901
 2247SOL     OW 9017   1.355   2.474   3.777
 2247SOL    HW2 9018   1.423   2.442   3.836
 2247SOL    HW3 9019   1.276   2.428   3.804
 2247SOL    MW4 9020   1.353   2.464   3.788
 2248SOL     OW 9021   1.343   2.740   3.845
 2248SOL    HW2 9022   1.357   2.740   3.939
 2248SOL    HW3 9023   1.341   2.648   3.820
 2248SOL    MW4 9024   1.345   2.728   3.854
 2249SOL     OW 9025   1.604   2.845   3.764
 2249SOL    HW2 9026   1.521   2.816   3.802
 2249SOL    HW3 9027   1.590   2.841   3.669
 2249SOL    MW4 9028   1.591   2.841   3.756
 2250SOL     OW 9029   1.599   3.113   3.880
 2250SOL    HW2 9030   1.595   3.117   3.975
 2250SOL    HW3 9031   1.618   3.021   3.860
 2250SOL    MW4 9032   1.601   3.101   3.890
 2251SOL     OW 9033   1.336   3.205   3.802
 2251SOL    HW2 9034   1.333   3.295   3.833
 2251SOL    HW3 9035   1.422   3.173   3.831
 2251SOL    MW4 9036   1.347   3.212   3.810
 2252SOL     OW 9037   1.338   3.473   3.844
 2252SOL    HW2 9038   1.405   3.508   3.785
 2252SOL    HW3 9039   1.256   3.506   3.808
 2252SOL    MW4 9040   1.336   3.482   3.831
 2253SOL     OW 9041   1.560   3.636   3.733
 2253SOL    HW2 9042   1.630   3.599   3.787
 2253SOL    HW3 9043   1.530   3.712   3.782
 2253SOL    MW4 9044   1.565   3.641   3.747
 2254SOL     OW 9045   1.528   3.875   3.909
 2254SOL    HW2 9046   1.517   3.891   4.002
 2254SOL    HW3 9047   1.467   3.935   3.866
 2254SOL    MW4 9048   1.519   3.885   3.915
 2255SOL     OW 9049   1.320   4.021   3.792
 2255SOL    HW2 9050   1.318   4.111   3.823
 2255SOL    HW3 9051   1.332   4.028   3.698
 2255SOL    MW4 9052   1.322   4.033   3.784
 2256SOL     OW 9053   1.326   4.281   3.865
 2256SOL    HW2 9054   1.397   4.336   3.832
 2256SOL    HW3 9055   1.248   4.310   3.817
 2256SOL    MW4 9056   1.325   4.292   3.855
 2257SOL     OW 9057   1.564   4.389   3.776
 2257SOL    HW2 9058   1.620   4.317   3.806
 2257SOL    HW3 9059   1.557   4.376   3.682
 2257SOL    MW4 9060   1.570   4.378   3.768
 2258SOL     OW 9061   1.966   4.597   3.824
 2258SOL    HW2 9062   2.056   4.627   3.809
 2258SOL    HW3 9063   1.960   4.514   3.777
 2258SOL    MW4 9064   1.977   4.590   3.816
 2259SOL     OW 9065   1.774   0.104   3.726
 2259SOL    HW2 9066   1.842   0.048   3.763
 2259SOL    HW3 9067   1.692   0.059   3.745
 2259SOL    MW4 9068   1.772   0.091   3.734
 2260SOL     OW 9069   1.792   0.359   3.799
 2260SOL    HW2 9070   1.760   0.355   3.889
 2260SOL    HW3 9071   1.786   0.269   3.767
 2260SOL    MW4 9072   1.787   0.347   3.807
 2261SOL     OW 9073   2.028   0.463   3.714
 2261SOL    HW2 9074   1.945   0.433   3.750
 2261SOL    HW3 9075   2.013   0.466   3.619
 2261SOL    MW4 9076   2.015   0.459   3.706
 2262SOL     OW 9077   2.022   0.730   3.812
 2262SOL    HW2 9078   2.009   0.741   3.906
 2262SOL    HW3 9079   2.022   0.635   3.799
 2262SOL    MW4 9080   2.020   0.719   3.823
 2263SOL     OW 9081   1.781   0.855   3.747
 2263SOL    HW2 9082   1.874   0.840   3.764
 2263SOL    HW3 9083   1.776   0.870   3.652
 2263SOL    MW4 9084   1.792   0.855   3.737
 2264SOL     OW 9085   1.791   1.128   3.853
 2264SOL    HW2 9086   1.811   1.129   3.946
 2264SOL    HW3 9087   1.779   1.036   3.832
 2264SOL    MW4 9088   1.792   1.116   3.862
 2265SOL     OW 9089   1.994   1.277   3.722
 2265SOL    HW2 9090   2.064   1.214   3.740
 2265SOL    HW3 9091   1.914   1.230   3.746
 2265SOL    MW4 9092   1.993   1.262   3.728
 2266SOL     OW 9093   2.010   1.504   3.866
 2266SOL    HW2 9094   1.950   1.565   3.824
 2266SOL    HW3 9095   2.001   1.422   3.817
 2266SOL    MW4 9096   2.001   1.501   3.854
 2267SOL     OW 9097   1.815   1.669   3.791
 2267SOL    HW2 9098   1.829   1.756   3.827
 2267SOL    HW3 9099   1.829   1.679   3.697
 2267SOL    MW4 9100   1.818   1.682   3.783
 2268SOL     OW 9101   1.803   1.943   3.870
 2268SOL    HW2 9102   1.807   1.939   3.965
 2268SOL    HW3 9103   1.723   1.993   3.851
 2268SOL    MW4 9104   1.793   1.949   3.880
 2269SOL     OW 9105   2.047   2.077   3.792
 2269SOL    HW2 9106   1.959   2.045   3.808
 2269SOL    HW3 9107   2.062   2.061   3.698
 2269SOL    MW4 9108   2.038   2.071   3.781
 2270SOL     OW 9109   2.003   2.300   3.942
 2270SOL    HW2 9110   1.943   2.352   3.889
 2270SOL    HW3 9111   2.010   2.217   3.895
 2270SOL    MW4 9112   1.996   2.296   3.929
 2271SOL     OW 9113   1.840   2.457   3.791
 2271SOL    HW2 9114   1.848   2.552   3.802
 2271SOL    HW3 9115   1.852   2.442   3.697
 2271SOL    MW4 9116   1.843   2.468   3.780
 2272SOL     OW 9117   1.860   2.739   3.849
 2272SOL    HW2 9118   1.846   2.736   3.944
 2272SOL    HW3 9119   1.776   2.770   3.814
 2272SOL    MW4 9120   1.847   2.743   3.857
 2273SOL     OW 9121   2.100   2.871   3.777
 2273SOL    HW2 9122   2.168   2.809   3.806
 2273SOL    HW3 9123   2.019   2.836   3.814
 2273SOL    MW4 9124   2.098   2.858   3.786
 2274SOL     OW 9125   2.029   3.137   3.813
 2274SOL    HW2 9126   2.067   3.050   3.806
 2274SOL    HW3 9127   2.102   3.197   3.793
 2274SOL    MW4 9128   2.044   3.134   3.809
 2275SOL     OW 9129   1.792   3.271   3.738
 2275SOL    HW2 9130   1.878   3.240   3.764
 2275SOL    HW3 9131   1.731   3.210   3.779
 2275SOL    MW4 9132   1.795   3.258   3.747
 2276SOL     OW 9133   1.753   3.530   3.881
 2276SOL    HW2 9134   1.839   3.561   3.851
 2276SOL    HW3 9135   1.751   3.438   3.857
 2276SOL    MW4 9136   1.764   3.522   3.874
 2277SOL     OW 9137   2.013   3.599   3.784
 2277SOL    HW2 9138   2.093   3.550   3.805
 2277SOL    HW3 9139   2.025   3.627   3.693
 2277SOL    MW4 9140   2.025   3.597   3.775
 2278SOL     OW 9141   2.025   3.864   3.868
 2278SOL    HW2 9142   2.105   3.899   3.828
 2278SOL    HW3 9143   2.028   3.770   3.848
 2278SOL    MW4 9144   2.036   3.856   3.860
 2279SOL     OW 9145   1.756   3.942   3.752
 2279SOL    HW2 9146   1.835   3.898   3.782
 2279SOL    HW3 9147   1.689   3.919   3.817
 2279SOL    MW4 9148   1.757   3.933   3.764
 2280SOL     OW 9149   1.775   4.223   3.837
 2280SOL    HW2 9150   1.830   4.262   3.769
 2280SOL    HW3 9151   1.768   4.131   3.812
 2280SOL    MW4 9152   1.782   4.216   3.825
 2281SOL     OW 9153   1.975   4.355   3.679
 2281SOL    HW2 9154   2.048   4.306   3.717
 2281SOL    HW3 9155   2.003   4.374   3.589
 2281SOL    MW4 9156   1.988   4.351   3.672
 2282SOL     OW 9157   2.455   4.611   3.844
 2282SOL    HW2 9158   2.446   4.629   3.938
 2282SOL    HW3 9159   2.532   4.661   3.817
 2282SOL    MW4 9160   2.464   4.620   3.853
 2283SOL     OW 9161   2.219   0.049   3.765
 2283SOL    HW2 9162   2.306   0.016   3.790
 2283SOL    HW3 9163   2.225   0.063   3.670
 2283SOL    MW4 9164   2.231   0.047   3.756
 2284SOL     OW 9165   2.237   0.322   3.827
 2284SOL    HW2 9166   2.223   0.228   3.821
 2284SOL    HW3 9167   2.169   0.360   3.770
 2284SOL    MW4 9168   2.226   0.315   3.819
 2285SOL     OW 9169   2.462   0.478   3.783
 2285SOL    HW2 9170   2.380   0.432   3.803
 2285SOL    HW3 9171   2.462   0.487   3.687
 2285SOL    MW4 9172   2.451   0.473   3.773
 2286SOL     OW 9173   2.504   0.750   3.897
 2286SOL    HW2 9174   2.434   0.788   3.843
 2286SOL    HW3 9175   2.512   0.660   3.866
 2286SOL    MW4 9176   2.496   0.743   3.886
 2287SOL     OW 9177   2.264   0.850   3.771
 2287SOL    HW2 9178   2.193   0.794   3.801
 2287SOL    HW3 9179   2.265   0.839   3.676
 2287SOL    MW4 9180   2.255   0.841   3.762
 2288SOL     OW 9181   2.196   1.115   3.804
 2288SOL    HW2 9182   2.201   1.146   3.895
 2288SOL    HW3 9183   2.209   1.021   3.810
 2288SOL    MW4 9184   2.198   1.107   3.817
 2289SOL     OW 9185   2.475   1.192   3.740
 2289SOL    HW2 9186   2.468   1.283   3.769
 2289SOL    HW3 9187   2.392   1.152   3.765
 2289SOL    MW4 9188   2.464   1.198   3.747
 2290SOL     OW 9189   2.479   1.462   3.832
 2290SOL    HW2 9190   2.556   1.510   3.804
 2290SOL    HW3 9191   2.409   1.528   3.836
 2290SOL    MW4 9192   2.480   1.477   3.829
 2291SOL     OW 9193   2.253   1.629   3.818
 2291SOL    HW2 9194   2.252   1.718   3.855
 2291SOL    HW3 9195   2.172   1.590   3.850
 2291SOL    MW4 9196   2.242   1.636   3.827
 2292SOL     OW 9197   2.227   1.900   3.890
 2292SOL    HW2 9198   2.235   1.910   3.985
 2292SOL    HW3 9199   2.154   1.957   3.866
 2292SOL    MW4 9200   2.219   1.909   3.900
 2293SOL     OW 9201   2.404   2.071   3.760
 2293SOL    HW2 9202   2.390   2.143   3.821
 2293SOL    HW3 9203   2.340   2.004   3.785
 2293SOL    MW4 9204   2.394   2.071   3.771
 2294SOL     OW 9205   2.443   2.299   3.916
 2294SOL    HW2 9206   2.520   2.340   3.876
 2294SOL    HW3 9207   2.371   2.358   3.894
 2294SOL    MW4 9208   2.444   2.312   3.908
 2295SOL     OW 9209   2.246   2.461   3.835
 2295SOL    HW2 9210   2.162   2.427   3.862
 2295SOL    HW3 9211   2.234   2.485   3.743
 2295SOL    MW4 9212   2.234   2.460   3.826
 2296SOL     OW 9213   2.306   2.733   3.924
 2296SOL    HW2 9214   2.251   2.750   4.000
 2296SOL    HW3 9215   2.277   2.648   3.891
 2296SOL    MW4 9216   2.295   2.724   3.929
 2297SOL     OW 9217   2.515   2.868   3.771
 2297SOL    HW2 9218   2.455   2.813   3.821
 2297SOL    HW3 9219   2.504   2.840   3.680
 2297SOL    MW4 9220   2.505   2.857   3.766
 2298SOL     OW 9221   2.443   3.106   3.901
 2298SOL    HW2 9222   2.428   3.078   3.992
 2298SOL    HW3 9223   2.462   3.025   3.854
 2298SOL    MW4 9224   2.444   3.092   3.907
 2299SOL     OW 9225   2.277   3.274   3.781
 2299SOL    HW2 9226   2.279   3.363   3.817
 2299SOL    HW3 9227   2.346   3.228   3.829
 2299SOL    MW4 9228   2.286   3.280   3.792
 2300SOL     OW 9229   2.254   3.527   3.893
 2300SOL    HW2 9230   2.247   3.524   3.989
 2300SOL    HW3 9231   2.336   3.572   3.876
 2300SOL    MW4 9232   2.264   3.532   3.903
 2301SOL     OW 9233   2.490   3.625   3.788
 2301SOL    HW2 9234   2.565   3.575   3.821
 2301SOL    HW3 9235   2.483   3.600   3.696
 2301SOL    MW4 9236   2.499   3.615   3.781
 2302SOL     OW 9237   2.476   3.889   3.829
 2302SOL    HW2 9238   2.553   3.939   3.801
 2302SOL    HW3 9239   2.505   3.798   3.826
 2302SOL    MW4 9240   2.490   3.884   3.825
 2303SOL     OW 9241   2.233   3.993   3.737
 2303SOL    HW2 9242   2.317   3.976   3.780
 2303SOL    HW3 9243   2.252   3.984   3.643
 2303SOL    MW4 9244   2.247   3.989   3.730
 2304SOL     OW 9245   2.207   4.250   3.818
 2304SOL    HW2 9246   2.211   4.262   3.913
 2304SOL    HW3 9247   2.192   4.156   3.806
 2304SOL    MW4 9248   2.205   4.239   3.829
 2305SOL     OW 9249   2.465   4.348   3.739
 2305SOL    HW2 9250   2.383   4.302   3.761
 2305SOL    HW3 9251   2.448   4.439   3.764
 2305SOL    MW4 9252   2.452   4.354   3.745
 2306SOL     OW 9253   2.925   4.666   3.823
 2306SOL    HW2 9254   2.910   4.674   3.917
 2306SOL    HW3 9255   2.993   4.730   3.804
 2306SOL    MW4 9256   2.932   4.675   3.833
 2307SOL     OW 9257   2.670   0.102   3.780
 2307SOL    HW2 9258   2.745   0.044   3.793
 2307SOL    HW3 9259   2.665   0.113   3.685
 2307SOL    MW4 9260   2.679   0.096   3.769
 2308SOL     OW 9261   2.714   0.362   3.816
 2308SOL    HW2 9262   2.701   0.267   3.807
 2308SOL    HW3 9263   2.625   0.397   3.822
 2308SOL    MW4 9264   2.700   0.354   3.815
 2309SOL     OW 9265   2.923   0.540   3.721
 2309SOL    HW2 9266   3.002   0.515   3.770
 2309SOL    HW3 9267   2.856   0.480   3.752
 2309SOL    MW4 9268   2.925   0.529   3.732
 2310SOL     OW 9269   2.943   0.784   3.877
 2310SOL    HW2 9270   3.022   0.830   3.846
 2310SOL    HW3 9271   2.936   0.707   3.821
 2310SOL    MW4 9272   2.953   0.780   3.866
 2311SOL     OW 9273   2.728   0.893   3.786
 2311SOL    HW2 9274   2.802   0.837   3.809
 2311SOL    HW3 9275   2.652   0.849   3.825
 2311SOL    MW4 9276   2.727   0.880   3.794
 2312SOL     OW 9277   2.741   1.151   3.872
 2312SOL    HW2 9278   2.739   1.060   3.843
 2312SOL    HW3 9279   2.651   1.182   3.860
 2312SOL    MW4 9280   2.729   1.144   3.867
 2313SOL     OW 9281   2.947   1.308   3.760
 2313SOL    HW2 9282   2.962   1.390   3.807
 2313SOL    HW3 9283   2.883   1.261   3.814
 2313SOL    MW4 9284   2.940   1.313   3.774
 2314SOL     OW 9285   2.967   1.570   3.878
 2314SOL    HW2 9286   2.957   1.553   3.972
 2314SOL    HW3 9287   3.031   1.641   3.873
 2314SOL    MW4 9288   2.974   1.577   3.890
 2315SOL     OW 9289   2.681   1.640   3.765
 2315SOL    HW2 9290   2.760   1.621   3.815
 2315SOL    HW3 9291   2.711   1.644   3.674
 2315SOL    MW4 9292   2.695   1.638   3.759
 2316SOL     OW 9293   2.628   1.913   3.866
 2316SOL    HW2 9294   2.631   1.824   3.833
 2316SOL    HW3 9295   2.552   1.952   3.824
 2316SOL    MW4 9296   2.619   1.907   3.856
 2317SOL     OW 9297   2.863   2.033   3.742
 2317SOL    HW2 9298   2.879   2.119   3.783
 2317SOL    HW3 9299   2.791   1.995   3.792
 2317SOL    MW4 9300   2.856   2.040   3.754
 2318SOL     OW 9301   2.909   2.266   3.892
 2318SOL    HW2 9302   2.916   2.279   3.987
 2318SOL    HW3 9303   2.964   2.335   3.855
 2318SOL    MW4 9304   2.917   2.277   3.900
 2319SOL     OW 9305   2.665   2.406   3.775
 2319SOL    HW2 9306   2.666   2.501   3.784
 2319SOL    HW3 9307   2.733   2.376   3.835
 2319SOL    MW4 9308   2.674   2.415   3.784
 2320SOL     OW 9309   2.706   2.664   3.832
 2320SOL    HW2 9310   2.720   2.645   3.925
 2320SOL    HW3 9311   2.641   2.734   3.832
 2320SOL    MW4 9312   2.699   2.671   3.844
 2321SOL     OW 9313   2.922   2.853   3.788
 2321SOL    HW2 9314   2.929   2.937   3.832
 2321SOL    HW3 9315   2.853   2.807   3.836
 2321SOL    MW4 9316   2.914   2.858   3.800
 2322SOL     OW 9317   2.929   3.078   3.940
 2322SOL    HW2 9318   2.998   3.137   3.910
 2322SOL    HW3 9319   2.847   3.125   3.925
 2322SOL    MW4 9320   2.927   3.092   3.934
 2323SOL     OW 9321   2.687   3.197   3.818
 2323SOL    HW2 9322   2.705   3.288   3.842
 2323SOL    HW3 9323   2.598   3.181   3.850
 2323SOL    MW4 9324   2.677   3.207   3.825
 2324SOL     OW 9325   2.707   3.474   3.889
 2324SOL    HW2 9326   2.684   3.493   3.980
 2324SOL    HW3 9327   2.779   3.534   3.869
 2324SOL    MW4 9328   2.713   3.485   3.898
 2325SOL     OW 9329   2.895   3.638   3.753
 2325SOL    HW2 9330   2.970   3.584   3.775
 2325SOL    HW3 9331   2.879   3.621   3.660
 2325SOL    MW4 9332   2.902   3.629   3.744
 2326SOL     OW 9333   2.921   3.907   3.859
 2326SOL    HW2 9334   2.914   3.905   3.954
 2326SOL    HW3 9335   2.911   3.816   3.832
 2326SOL    MW4 9336   2.919   3.895   3.868
 2327SOL     OW 9337   2.699   4.041   3.764
 2327SOL    HW2 9338   2.693   4.121   3.815
 2327SOL    HW3 9339   2.772   3.993   3.802
 2327SOL    MW4 9340   2.708   4.045   3.775
 2328SOL     OW 9341   2.702   4.287   3.890
 2328SOL    HW2 9342   2.784   4.332   3.867
 2328SOL    HW3 9343   2.637   4.324   3.830
 2328SOL    MW4 9344   2.704   4.298   3.879
 2329SOL     OW 9345   2.910   4.411   3.742
 2329SOL    HW2 9346   2.995   4.376   3.772
 2329SOL    HW3 9347   2.920   4.506   3.747
 2329SOL    MW4 9348   2.923   4.419   3.747
 2330SOL     OW 9349   3.370   0.024   3.892
 2330SOL    HW2 9350   3.382   0.019   3.987
 2330SOL    HW3 9351   3.449   0.068   3.861
 2330SOL    MW4 9352   3.382   0.029   3.900
 2331SOL     OW 9353   3.140   0.157   3.752
 2331SOL    HW2 9354   3.226   0.124   3.778
 2331SOL    HW3 9355   3.137   0.143   3.657
 2331SOL    MW4 9356   3.151   0.151   3.743
 2332SOL     OW 9357   3.156   0.435   3.847
 2332SOL    HW2 9358   3.146   0.458   3.940
 2332SOL    HW3 9359   3.143   0.340   3.845
 2332SOL    MW4 9360   3.153   0.425   3.859
 2333SOL     OW 9361   3.422   0.509   3.769
 2333SOL    HW2 9362   3.495   0.462   3.809
 2333SOL    HW3 9363   3.344   0.459   3.795
 2333SOL    MW4 9364   3.421   0.496   3.778
 2334SOL     OW 9365   3.377   0.762   3.883
 2334SOL    HW2 9366   3.351   0.755   3.975
 2334SOL    HW3 9367   3.387   0.672   3.854
 2334SOL    MW4 9368   3.375   0.749   3.891
 2335SOL     OW 9369   3.167   0.918   3.782
 2335SOL    HW2 9370   3.251   0.880   3.806
 2335SOL    HW3 9371   3.172   0.928   3.687
 2335SOL    MW4 9372   3.179   0.914   3.772
 2336SOL     OW 9373   3.163   1.178   3.848
 2336SOL    HW2 9374   3.157   1.087   3.821
 2336SOL    HW3 9375   3.078   1.216   3.824
 2336SOL    MW4 9376   3.151   1.171   3.841
 2337SOL     OW 9377   3.412   1.316   3.830
 2337SOL    HW2 9378   3.333   1.263   3.845
 2337SOL    HW3 9379   3.417   1.325   3.735
 2337SOL    MW4 9380   3.402   1.310   3.820
 2338SOL     OW 9381   3.402   1.578   3.909
 2338SOL    HW2 9382   3.318   1.610   3.879
 2338SOL    HW3 9383   3.399   1.483   3.893
 2338SOL    MW4 9384   3.391   1.570   3.903
 2339SOL     OW 9385   3.180   1.717   3.811
 2339SOL    HW2 9386   3.153   1.805   3.836
 2339SOL    HW3 9387   3.174   1.715   3.716
 2339SOL    MW4 9388   3.176   1.728   3.802
 2340SOL     OW 9389   3.098   1.964   3.865
 2340SOL    HW2 9390   3.078   1.969   3.958
 2340SOL    HW3 9391   3.014   1.980   3.821
 2340SOL    MW4 9392   3.084   1.967   3.871
 2341SOL     OW 9393   3.338   2.099   3.794
 2341SOL    HW2 9394   3.249   2.065   3.803
 2341SOL    HW3 9395   3.354   2.101   3.699
 2341SOL    MW4 9396   3.328   2.095   3.783
 2342SOL     OW 9397   3.369   2.381   3.843
 2342SOL    HW2 9398   3.281   2.404   3.812
 2342SOL    HW3 9399   3.376   2.286   3.828
 2342SOL    MW4 9400   3.358   2.371   3.837
 2343SOL     OW 9401   3.095   2.444   3.778
 2343SOL    HW2 9402   3.098   2.527   3.825
 2343SOL    HW3 9403   3.087   2.469   3.686
 2343SOL    MW4 9404   3.094   2.458   3.772
 2344SOL     OW 9405   3.173   2.739   3.873
 2344SOL    HW2 9406   3.163   2.721   3.967
 2344SOL    HW3 9407   3.091   2.782   3.848
 2344SOL    MW4 9408   3.161   2.742   3.882
 2345SOL     OW 9409   3.400   2.857   3.761
 2345SOL    HW2 9410   3.314   2.822   3.785
 2345SOL    HW3 9411   3.398   2.862   3.665
 2345SOL    MW4 9412   3.388   2.853   3.751
 2346SOL     OW 9413   3.373   3.098   3.876
 2346SOL    HW2 9414   3.451   3.139   3.840
 2346SOL    HW3 9415   3.374   3.009   3.839
 2346SOL    MW4 9416   3.383   3.092   3.866
 2347SOL     OW 9417   3.145   3.213   3.788
 2347SOL    HW2 9418   3.231   3.184   3.819
 2347SOL    HW3 9419   3.154   3.219   3.693
 2347SOL    MW4 9420   3.158   3.210   3.780
 2348SOL     OW 9421   3.112   3.486   3.826
 2348SOL    HW2 9422   3.186   3.526   3.780
 2348SOL    HW3 9423   3.124   3.392   3.813
 2348SOL    MW4 9424   3.123   3.479   3.818
 2349SOL     OW 9425   3.386   3.635   3.751
 2349SOL    HW2 9426   3.384   3.725   3.784
 2349SOL    HW3 9427   3.402   3.644   3.658
 2349SOL    MW4 9428   3.388   3.648   3.743
 2350SOL     OW 9429   3.368   3.887   3.845
 2350SOL    HW2 9430   3.440   3.947   3.826
 2350SOL    HW3 9431   3.291   3.929   3.806
 2350SOL    MW4 9432   3.367   3.901   3.837
 2351SOL     OW 9433   3.153   4.032   3.751
 2351SOL    HW2 9434   3.159   4.127   3.760
 2351SOL    HW3 9435   3.088   4.006   3.816
 2351SOL    MW4 9436   3.145   4.041   3.761
 2352SOL     OW 9437   3.148   4.312   3.835
 2352SOL    HW2 9438   3.114   4.349   3.916
 2352SOL    HW3 9439   3.227   4.363   3.816
 2352SOL    MW4 9440   3.154   4.323   3.843
 2353SOL     OW 9441   3.374   4.450   3.757
 2353SOL    HW2 9442   3.433   4.390   3.804
 2353SOL    HW3 9443   3.383   4.533   3.803
 2353SOL    MW4 9444   3.383   4.453   3.769
 2354SOL     OW 9445   3.825   0.012   3.920
 2354SOL    HW2 9446   3.903   0.041   3.872
 2354SOL    HW3 9447   3.836  -0.083   3.929
 2354SOL    MW4 9448   3.837   0.003   3.915
 2355SOL     OW 9449   3.604   0.103   3.791
 2355SOL    HW2 9450   3.684   0.055   3.816
 2355SOL    HW3 9451   3.598   0.090   3.696
 2355SOL    MW4 9452   3.614   0.095   3.782
 2356SOL     OW 9453   3.595   0.367   3.893
 2356SOL    HW2 9454   3.677   0.410   3.870
 2356SOL    HW3 9455   3.598   0.283   3.847
 2356SOL    MW4 9456   3.606   0.361   3.884
 2357SOL     OW 9457   3.839   0.485   3.794
 2357SOL    HW2 9458   3.916   0.433   3.817
 2357SOL    HW3 9459   3.867   0.576   3.806
 2357SOL    MW4 9460   3.853   0.490   3.799
 2358SOL     OW 9461   3.844   0.780   3.853
 2358SOL    HW2 9462   3.919   0.837   3.834
 2358SOL    HW3 9463   3.768   0.829   3.821
 2358SOL    MW4 9464   3.844   0.794   3.846
 2359SOL     OW 9465   3.609   0.897   3.775
 2359SOL    HW2 9466   3.608   0.991   3.797
 2359SOL    HW3 9467   3.534   0.861   3.823
 2359SOL    MW4 9468   3.599   0.905   3.784
 2360SOL     OW 9469   3.632   1.179   3.868
 2360SOL    HW2 9470   3.701   1.223   3.819
 2360SOL    HW3 9471   3.553   1.230   3.850
 2360SOL    MW4 9472   3.631   1.191   3.859
 2361SOL     OW 9473   3.866   1.310   3.727
 2361SOL    HW2 9474   3.940   1.267   3.769
 2361SOL    HW3 9475   3.862   1.397   3.768
 2361SOL    MW4 9476   3.875   1.316   3.738
 2362SOL     OW 9477   3.816   1.535   3.869
 2362SOL    HW2 9478   3.832   1.550   3.962
 2362SOL    HW3 9479   3.748   1.599   3.846
 2362SOL    MW4 9480   3.809   1.545   3.878
 2363SOL     OW 9481   3.624   1.705   3.771
 2363SOL    HW2 9482   3.555   1.650   3.808
 2363SOL    HW3 9483   3.599   1.717   3.679
 2363SOL    MW4 9484   3.611   1.700   3.764
 2364SOL     OW 9485   3.577   1.980   3.888
 2364SOL    HW2 9486   3.582   1.895   3.843
 2364SOL    HW3 9487   3.494   2.017   3.858
 2364SOL    MW4 9488   3.566   1.973   3.878
 2365SOL     OW 9489   3.792   2.085   3.747
 2365SOL    HW2 9490   3.869   2.035   3.772
 2365SOL    HW3 9491   3.721   2.049   3.800
 2365SOL    MW4 9492   3.793   2.074   3.757
 2366SOL     OW 9493   3.810   2.341   3.870
 2366SOL    HW2 9494   3.738   2.390   3.829
 2366SOL    HW3 9495   3.805   2.254   3.831
 2366SOL    MW4 9496   3.799   2.336   3.859
 2367SOL     OW 9497   3.607   2.490   3.773
 2367SOL    HW2 9498   3.522   2.458   3.804
 2367SOL    HW3 9499   3.599   2.491   3.678
 2367SOL    MW4 9500   3.595   2.486   3.765
 2368SOL     OW 9501   3.614   2.736   3.888
 2368SOL    HW2 9502   3.610   2.647   3.851
 2368SOL    HW3 9503   3.545   2.783   3.843
 2368SOL    MW4 9504   3.605   2.730   3.877
 2369SOL     OW 9505   3.811   2.840   3.737
 2369SOL    HW2 9506   3.894   2.805   3.769
 2369SOL    HW3 9507   3.747   2.813   3.803
 2369SOL    MW4 9508   3.813   2.832   3.750
 2370SOL     OW 9509   3.825   3.099   3.833
 2370SOL    HW2 9510   3.743   3.145   3.820
 2370SOL    HW3 9511   3.814   3.016   3.788
 2370SOL    MW4 9512   3.813   3.094   3.825
 2371SOL     OW 9513   3.597   3.245   3.764
 2371SOL    HW2 9514   3.597   3.340   3.779
 2371SOL    HW3 9515   3.606   3.236   3.669
 2371SOL    MW4 9516   3.598   3.256   3.753
 2372SOL     OW 9517   3.604   3.525   3.845
 2372SOL    HW2 9518   3.594   3.521   3.940
 2372SOL    HW3 9519   3.520   3.557   3.813
 2372SOL    MW4 9520   3.592   3.529   3.853
 2373SOL     OW 9521   3.841   3.614   3.736
 2373SOL    HW2 9522   3.838   3.709   3.747
 2373SOL    HW3 9523   3.757   3.582   3.769
 2373SOL    MW4 9524   3.830   3.622   3.742
 2374SOL     OW 9525   3.809   3.884   3.790
 2374SOL    HW2 9526   3.805   3.889   3.885
 2374SOL    HW3 9527   3.890   3.931   3.767
 2374SOL    MW4 9528   3.819   3.891   3.799
 2375SOL     OW 9529   3.570   4.020   3.755
 2375SOL    HW2 9530   3.590   4.095   3.810
 2375SOL    HW3 9531   3.653   3.972   3.749
 2375SOL    MW4 9532   3.584   4.023   3.761
 2376SOL     OW 9533   3.581   4.287   3.863
 2376SOL    HW2 9534   3.557   4.323   3.949
 2376SOL    HW3 9535   3.670   4.318   3.848
 2376SOL    MW4 9536   3.590   4.296   3.873
 2377SOL     OW 9537   3.844   4.375   3.830
 2377SOL    HW2 9538   3.920   4.318   3.843
 2377SOL    HW3 9539   3.832   4.379   3.735
 2377SOL    MW4 9540   3.852   4.368   3.819
 2378SOL     OW 9541   4.297   4.640   3.862
 2378SOL    HW2 9542   4.277   4.651   3.955
 2378SOL    HW3 9543   4.378   4.688   3.849
 2378SOL    MW4 9544   4.305   4.648   3.872
 2379SOL     OW 9545   4.059   0.094   3.777
 2379SOL    HW2 9546   4.139   0.048   3.804
 2379SOL    HW3 9547   4.065   0.100   3.682
 2379SOL    MW4 9548   4.070   0.089   3.768
 2380SOL     OW 9549   4.064   0.370   3.860
 2380SOL    HW2 9550   4.027   0.366   3.948
 2380SOL    HW3 9551   4.057   0.281   3.826
 2380SOL    MW4 9552   4.058   0.358   3.867
 2381SOL     OW 9553   4.289   0.511   3.747
 2381SOL    HW2 9554   4.214   0.456   3.771
 2381SOL    HW3 9555   4.288   0.512   3.651
 2381SOL    MW4 9556   4.279   0.504   3.738
 2382SOL     OW 9557   4.300   0.755   3.860
 2382SOL    HW2 9558   4.218   0.796   3.835
 2382SOL    HW3 9559   4.290   0.663   3.835
 2382SOL    MW4 9560   4.288   0.748   3.853
 2383SOL     OW 9561   4.076   0.911   3.791
 2383SOL    HW2 9562   4.066   1.001   3.821
 2383SOL    HW3 9563   4.073   0.916   3.696
 2383SOL    MW4 9564   4.074   0.924   3.783
 2384SOL     OW 9565   4.053   1.176   3.867
 2384SOL    HW2 9566   4.057   1.204   3.958
 2384SOL    HW3 9567   4.121   1.227   3.823
 2384SOL    MW4 9568   4.063   1.186   3.873
 2385SOL     OW 9569   4.284   1.311   3.783
 2385SOL    HW2 9570   4.307   1.400   3.808
 2385SOL    HW3 9571   4.291   1.309   3.688
 2385SOL    MW4 9572   4.288   1.322   3.774
 2386SOL     OW 9573   4.284   1.577   3.869
 2386SOL    HW2 9574   4.207   1.612   3.824
 2386SOL    HW3 9575   4.358   1.614   3.821
 2386SOL    MW4 9576   4.284   1.586   3.857
 2387SOL     OW 9577   4.047   1.643   3.760
 2387SOL    HW2 9578   4.025   1.735   3.776
 2387SOL    HW3 9579   3.970   1.594   3.789
 2387SOL    MW4 9580   4.034   1.649   3.766
 2388SOL     OW 9581   3.992   1.915   3.822
 2388SOL    HW2 9582   3.986   1.924   3.917
 2388SOL    HW3 9583   4.071   1.963   3.797
 2388SOL    MW4 9584   4.001   1.923   3.831
 2389SOL     OW 9585   4.225   2.056   3.765
 2389SOL    HW2 9586   4.232   2.148   3.790
 2389SOL    HW3 9587   4.247   2.054   3.672
 2389SOL    MW4 9588   4.229   2.068   3.756
 2390SOL     OW 9589   4.266   2.322   3.826
 2390SOL    HW2 9590   4.261   2.331   3.922
 2390SOL    HW3 9591   4.188   2.366   3.793
 2390SOL    MW4 9592   4.255   2.329   3.835
 2391SOL     OW 9593   4.027   2.454   3.768
 2391SOL    HW2 9594   4.020   2.543   3.801
 2391SOL    HW3 9595   3.952   2.408   3.806
 2391SOL    MW4 9596   4.016   2.459   3.777
 2392SOL     OW 9597   4.050   2.725   3.819
 2392SOL    HW2 9598   4.058   2.719   3.914
 2392SOL    HW3 9599   4.126   2.775   3.791
 2392SOL    MW4 9600   4.061   2.731   3.828
 2393SOL     OW 9601   4.267   2.861   3.718
 2393SOL    HW2 9602   4.265   2.936   3.778
 2393SOL    HW3 9603   4.349   2.817   3.737
 2393SOL    MW4 9604   4.277   2.865   3.729
 2394SOL     OW 9605   4.260   3.099   3.866
 2394SOL    HW2 9606   4.183   3.147   3.836
 2394SOL    HW3 9607   4.334   3.141   3.822
 2394SOL    MW4 9608   4.259   3.111   3.856
 2395SOL     OW 9609   4.053   3.246   3.745
 2395SOL    HW2 9610   3.971   3.203   3.769
 2395SOL    HW3 9611   4.061   3.233   3.651
 2395SOL    MW4 9612   4.043   3.239   3.736
 2396SOL     OW 9613   4.021   3.481   3.887
 2396SOL    HW2 9614   4.037   3.401   3.838
 2396SOL    HW3 9615   3.948   3.523   3.842
 2396SOL    MW4 9616   4.013   3.476   3.875
 2397SOL     OW 9617   4.245   3.628   3.788
 2397SOL    HW2 9618   4.168   3.581   3.818
 2397SOL    HW3 9619   4.319   3.579   3.823
 2397SOL    MW4 9620   4.245   3.616   3.797
 2398SOL     OW 9621   4.253   3.896   3.867
 2398SOL    HW2 9622   4.191   3.928   3.801
 2398SOL    HW3 9623   4.259   3.802   3.850
 2398SOL    MW4 9624   4.245   3.887   3.856
 2399SOL     OW 9625   4.047   4.014   3.720
 2399SOL    HW2 9626   4.057   4.106   3.744
 2399SOL    HW3 9627   4.036   4.015   3.625
 2399SOL    MW4 9628   4.047   4.026   3.711
 2400SOL     OW 9629   4.074   4.236   3.907
 2400SOL    HW2 9630   4.059   4.257   3.999
 2400SOL    HW3 9631   4.158   4.276   3.886
 2400SOL    MW4 9632   4.083   4.244   3.916
 2401SOL     OW 9633   4.285   4.389   3.750
 2401SOL    HW2 9634   4.265   4.476   3.784
 2401SOL    HW3 9635   4.375   4.372   3.779
 2401SOL    MW4 9636   4.294   4.398   3.758
 2402SOL     OW 9637   0.204   4.581   4.168
 2402SOL    HW2 9638   0.281   4.637   4.175
 2402SOL    HW3 9639   0.217   4.514   4.235
 2402SOL    MW4 9640   0.215   4.579   4.178
 2403SOL     OW 9641   4.485   0.088   4.186
 2403SOL    HW2 9642   4.479   0.105   4.280
 2403SOL    HW3 9643   4.555   0.022   4.178
 2403SOL    MW4 9644   4.494   0.082   4.197
 2404SOL     OW 9645   0.009   0.368   4.075
 2404SOL    HW2 9646  -0.004   0.273   4.075
 2404SOL    HW3 9647   0.049   0.387   3.991
 2404SOL    MW4 9648   0.012   0.358   4.064
 2405SOL     OW 9649   0.201   0.422   4.251
 2405SOL    HW2 9650   0.279   0.382   4.212
 2405SOL    HW3 9651   0.129   0.396   4.192
 2405SOL    MW4 9652   0.201   0.413   4.238
 2406SOL     OW 9653   0.254   0.694   4.122
 2406SOL    HW2 9654   0.187   0.746   4.166
 2406SOL    HW3 9655   0.252   0.609   4.167
 2406SOL    MW4 9656   0.245   0.690   4.134
 2407SOL     OW 9657   0.043   0.826   4.252
 2407SOL    HW2 9658  -0.033   0.781   4.214
 2407SOL    HW3 9659   0.040   0.914   4.214
 2407SOL    MW4 9660   0.033   0.831   4.242
 2408SOL     OW 9661   0.038   1.089   4.164
 2408SOL    HW2 9662   0.113   1.144   4.188
 2408SOL    HW3 9663   0.018   1.113   4.073
 2408SOL    MW4 9664   0.045   1.100   4.155
 2409SOL     OW 9665   0.260   1.257   4.232
 2409SOL    HW2 9666   0.279   1.265   4.325
 2409SOL    HW3 9667   0.323   1.192   4.200
 2409SOL    MW4 9668   0.271   1.249   4.240
 2410SOL     OW 9669   0.530   1.777   4.672
 2410SOL    HW2 9670   0.448   1.816   4.704
 2410SOL    HW3 9671   0.501   1.709   4.611
 2410SOL    MW4 9672   0.515   1.774   4.668
 2411SOL     OW 9673   0.066   1.650   4.183
 2411SOL    HW2 9674  -0.018   1.604   4.189
 2411SOL    HW3 9675   0.042   1.741   4.164
 2411SOL    MW4 9676   0.052   1.656   4.182
 2412SOL     OW 9677   0.214   2.039   4.241
 2412SOL    HW2 9678   0.189   2.078   4.325
 2412SOL    HW3 9679   0.309   2.026   4.248
 2412SOL    MW4 9680   0.223   2.043   4.253
 2413SOL     OW 9681   0.507   1.385   4.612
 2413SOL    HW2 9682   0.481   1.464   4.565
 2413SOL    HW3 9683   0.485   1.402   4.703
 2413SOL    MW4 9684   0.500   1.398   4.618
 2414SOL     OW 9685   0.206   2.240   4.067
 2414SOL    HW2 9686   0.288   2.280   4.096
 2414SOL    HW3 9687   0.194   2.166   4.126
 2414SOL    MW4 9688   0.215   2.236   4.079
 2415SOL     OW 9689   0.013   2.435   4.124
 2415SOL    HW2 9690  -0.067   2.381   4.131
 2415SOL    HW3 9691   0.082   2.372   4.106
 2415SOL    MW4 9692   0.011   2.419   4.123
 2416SOL     OW 9693   4.474   2.699   4.064
 2416SOL    HW2 9694   4.554   2.724   4.111
 2416SOL    HW3 9695   4.478   2.603   4.061
 2416SOL    MW4 9696   4.485   2.690   4.070
 2417SOL     OW 9697   0.229   2.769   4.203
 2417SOL    HW2 9698   0.302   2.732   4.153
 2417SOL    HW3 9699   0.237   2.863   4.190
 2417SOL    MW4 9700   0.240   2.777   4.195
 2418SOL     OW 9701   0.228   3.033   4.153
 2418SOL    HW2 9702   0.314   3.068   4.175
 2418SOL    HW3 9703   0.168   3.081   4.210
 2418SOL    MW4 9704   0.231   3.044   4.163
 2419SOL     OW 9705   0.019   3.175   4.260
 2419SOL    HW2 9706  -0.057   3.134   4.219
 2419SOL    HW3 9707   0.026   3.261   4.218
 2419SOL    MW4 9708   0.010   3.181   4.250
 2420SOL     OW 9709   4.474   3.431   4.154
 2420SOL    HW2 9710   4.399   3.473   4.196
 2420SOL    HW3 9711   4.468   3.455   4.062
 2420SOL    MW4 9712   4.464   3.440   4.148
 2421SOL     OW 9713   0.236   3.564   4.213
 2421SOL    HW2 9714   0.303   3.511   4.171
 2421SOL    HW3 9715   0.155   3.515   4.201
 2421SOL    MW4 9716   0.234   3.551   4.206
 2422SOL     OW 9717   4.464   3.990   4.222
 2422SOL    HW2 9718   4.372   3.986   4.195
 2422SOL    HW3 9719   4.464   3.958   4.312
 2422SOL    MW4 9720   4.452   3.985   4.230
 2423SOL     OW 9721   0.011   3.860   4.485
 2423SOL    HW2 9722   0.071   3.785   4.490
 2423SOL    HW3 9723  -0.076   3.820   4.484
 2423SOL    MW4 9724   0.007   3.845   4.486
 2424SOL     OW 9725   4.457   4.289   4.199
 2424SOL    HW2 9726   4.455   4.197   4.225
 2424SOL    HW3 9727   4.478   4.287   4.105
 2424SOL    MW4 9728   4.460   4.277   4.190
 2425SOL     OW 9729   0.200   4.360   4.350
 2425SOL    HW2 9730   0.222   4.290   4.411
 2425SOL    HW3 9731   0.119   4.331   4.308
 2425SOL    MW4 9732   0.192   4.347   4.353
 2426SOL     OW 9733   0.647   4.636   4.197
 2426SOL    HW2 9734   0.563   4.680   4.213
 2426SOL    HW3 9735   0.651   4.624   4.102
 2426SOL    MW4 9736   0.637   4.640   4.187
 2427SOL     OW 9737   0.409   0.088   4.211
 2427SOL    HW2 9738   0.425   0.095   4.306
 2427SOL    HW3 9739   0.423   0.176   4.178
 2427SOL    MW4 9740   0.413   0.100   4.219
 2428SOL     OW 9741   0.439   0.345   4.121
 2428SOL    HW2 9742   0.507   0.401   4.159
 2428SOL    HW3 9743   0.442   0.365   4.027
 2428SOL    MW4 9744   0.448   0.355   4.114
 2429SOL     OW 9745   0.669   0.486   4.202
 2429SOL    HW2 9746   0.743   0.433   4.174
 2429SOL    HW3 9747   0.679   0.569   4.155
 2429SOL    MW4 9748   0.680   0.490   4.192
 2430SOL     OW 9749   0.687   0.735   4.062
 2430SOL    HW2 9750   0.617   0.764   4.122
 2430SOL    HW3 9751   0.646   0.737   3.976
 2430SOL    MW4 9752   0.672   0.739   4.059
 2431SOL     OW 9753   0.471   0.838   4.215
 2431SOL    HW2 9754   0.464   0.923   4.173
 2431SOL    HW3 9755   0.385   0.798   4.203
 2431SOL    MW4 9756   0.459   0.844   4.208
 2432SOL     OW 9757   0.457   1.110   4.134
 2432SOL    HW2 9758   0.540   1.142   4.171
 2432SOL    HW3 9759   0.453   1.149   4.047
 2432SOL    MW4 9760   0.467   1.119   4.128
 2433SOL     OW 9761   0.684   1.254   4.222
 2433SOL    HW2 9762   0.693   1.286   4.312
 2433SOL    HW3 9763   0.698   1.332   4.167
 2433SOL    MW4 9764   0.687   1.269   4.226
 2434SOL     OW 9765   0.722   1.491   4.119
 2434SOL    HW2 9766   0.793   1.547   4.150
 2434SOL    HW3 9767   0.701   1.523   4.031
 2434SOL    MW4 9768   0.728   1.502   4.112
 2435SOL     OW 9769   0.247   1.478   4.083
 2435SOL    HW2 9770   0.237   1.389   4.118
 2435SOL    HW3 9771   0.179   1.528   4.127
 2435SOL    MW4 9772   0.236   1.473   4.093
 2436SOL     OW 9773   0.452   1.906   4.162
 2436SOL    HW2 9774   0.445   1.811   4.171
 2436SOL    HW3 9775   0.435   1.923   4.069
 2436SOL    MW4 9776   0.449   1.896   4.151
 2437SOL     OW 9777   0.682   2.073   4.208
 2437SOL    HW2 9778   0.669   2.097   4.300
 2437SOL    HW3 9779   0.619   2.002   4.193
 2437SOL    MW4 9780   0.672   2.067   4.218
 2438SOL     OW 9781   0.690   2.331   4.056
 2438SOL    HW2 9782   0.694   2.241   4.089
 2438SOL    HW3 9783   0.687   2.321   3.961
 2438SOL    MW4 9784   0.690   2.318   4.048
 2439SOL     OW 9785   0.429   2.376   4.175
 2439SOL    HW2 9786   0.437   2.469   4.150
 2439SOL    HW3 9787   0.510   2.336   4.142
 2439SOL    MW4 9788   0.441   2.383   4.167
 2440SOL     OW 9789   0.468   2.640   4.103
 2440SOL    HW2 9790   0.530   2.692   4.155
 2440SOL    HW3 9791   0.472   2.679   4.016
 2440SOL    MW4 9792   0.477   2.652   4.099
 2441SOL     OW 9793   0.694   2.833   4.218
 2441SOL    HW2 9794   0.710   2.863   4.307
 2441SOL    HW3 9795   0.677   2.913   4.168
 2441SOL    MW4 9796   0.694   2.848   4.223
 2442SOL     OW 9797   0.700   3.080   4.111
 2442SOL    HW2 9798   0.762   3.116   4.174
 2442SOL    HW3 9799   0.616   3.116   4.137
 2442SOL    MW4 9800   0.697   3.090   4.123
 2443SOL     OW 9801   0.459   3.191   4.198
 2443SOL    HW2 9802   0.456   3.244   4.277
 2443SOL    HW3 9803   0.451   3.254   4.126
 2443SOL    MW4 9804   0.457   3.206   4.199
 2444SOL     OW 9805   0.437   3.444   4.080
 2444SOL    HW2 9806   0.499   3.499   4.129
 2444SOL    HW3 9807   0.438   3.480   3.991
 2444SOL    MW4 9808   0.445   3.456   4.075
 2445SOL     OW 9809   0.610   3.602   4.228
 2445SOL    HW2 9810   0.581   3.603   4.320
 2445SOL    HW3 9811   0.696   3.561   4.231
 2445SOL    MW4 9812   0.618   3.597   4.241
 2446SOL     OW 9813   0.643   3.861   4.133
 2446SOL    HW2 9814   0.580   3.916   4.179
 2446SOL    HW3 9815   0.618   3.772   4.154
 2446SOL    MW4 9816   0.632   3.857   4.142
 2447SOL     OW 9817   0.415   3.968   4.251
 2447SOL    HW2 9818   0.404   4.062   4.238
 2447SOL    HW3 9819   0.334   3.930   4.217
 2447SOL    MW4 9820   0.402   3.976   4.245
 2448SOL     OW 9821   0.421   4.247   4.197
 2448SOL    HW2 9822   0.339   4.291   4.217
 2448SOL    HW3 9823   0.437   4.264   4.105
 2448SOL    MW4 9824   0.412   4.255   4.188
 2449SOL     OW 9825   0.659   4.358   4.314
 2449SOL    HW2 9826   0.578   4.314   4.290
 2449SOL    HW3 9827   0.647   4.449   4.285
 2449SOL    MW4 9828   0.647   4.364   4.307
 2450SOL     OW 9829   1.113   4.579   4.144
 2450SOL    HW2 9830   1.132   4.485   4.150
 2450SOL    HW3 9831   1.083   4.591   4.053
 2450SOL    MW4 9832   1.111   4.568   4.132
 2451SOL     OW 9833   0.911   0.085   4.261
 2451SOL    HW2 9834   0.962   0.010   4.232
 2451SOL    HW3 9835   0.824   0.071   4.225
 2451SOL    MW4 9836   0.906   0.074   4.253
 2452SOL     OW 9837   0.897   0.335   4.146
 2452SOL    HW2 9838   0.960   0.403   4.168
 2452SOL    HW3 9839   0.930   0.256   4.188
 2452SOL    MW4 9840   0.909   0.334   4.154
 2453SOL     OW 9841   1.144   0.480   4.191
 2453SOL    HW2 9842   1.124   0.460   4.283
 2453SOL    HW3 9843   1.216   0.421   4.169
 2453SOL    MW4 9844   1.151   0.469   4.200
 2454SOL     OW 9845   1.127   0.759   4.134
 2454SOL    HW2 9846   1.192   0.808   4.184
 2454SOL    HW3 9847   1.150   0.667   4.150
 2454SOL    MW4 9848   1.139   0.753   4.143
 2455SOL     OW 9849   0.883   0.857   4.211
 2455SOL    HW2 9850   0.962   0.826   4.166
 2455SOL    HW3 9851   0.811   0.822   4.159
 2455SOL    MW4 9852   0.884   0.848   4.198
 2456SOL     OW 9853   0.929   1.121   4.120
 2456SOL    HW2 9854   0.926   1.030   4.148
 2456SOL    HW3 9855   0.855   1.162   4.165
 2456SOL    MW4 9856   0.919   1.115   4.130
 2457SOL     OW 9857   1.157   1.279   4.198
 2457SOL    HW2 9858   1.183   1.262   4.289
 2457SOL    HW3 9859   1.069   1.242   4.191
 2457SOL    MW4 9860   1.149   1.272   4.209
 2458SOL     OW 9861   1.168   1.542   4.129
 2458SOL    HW2 9862   1.089   1.590   4.156
 2458SOL    HW3 9863   1.159   1.456   4.170
 2458SOL    MW4 9864   1.157   1.537   4.138
 2459SOL     OW 9865   0.927   1.662   4.199
 2459SOL    HW2 9866   0.911   1.649   4.292
 2459SOL    HW3 9867   0.919   1.757   4.186
 2459SOL    MW4 9868   0.924   1.673   4.210
 2460SOL     OW 9869   0.944   1.942   4.141
 2460SOL    HW2 9870   0.866   1.991   4.165
 2460SOL    HW3 9871   0.949   1.951   4.045
 2460SOL    MW4 9872   0.934   1.950   4.131
 2461SOL     OW 9873   1.206   2.003   4.225
 2461SOL    HW2 9874   1.210   1.979   4.317
 2461SOL    HW3 9875   1.120   1.974   4.195
 2461SOL    MW4 9876   1.196   1.996   4.233
 2462SOL     OW 9877   1.150   2.276   4.163
 2462SOL    HW2 9878   1.222   2.330   4.194
 2462SOL    HW3 9879   1.173   2.187   4.190
 2462SOL    MW4 9880   1.162   2.271   4.171
 2463SOL     OW 9881   0.921   2.409   4.204
 2463SOL    HW2 9882   0.992   2.348   4.183
 2463SOL    HW3 9883   0.853   2.390   4.140
 2463SOL    MW4 9884   0.922   2.398   4.193
 2464SOL     OW 9885   0.935   2.675   4.129
 2464SOL    HW2 9886   0.934   2.591   4.173
 2464SOL    HW3 9887   0.854   2.718   4.157
 2464SOL    MW4 9888   0.924   2.670   4.138
 2465SOL     OW 9889   1.138   2.831   4.240
 2465SOL    HW2 9890   1.134   2.916   4.195
 2465SOL    HW3 9891   1.068   2.780   4.199
 2465SOL    MW4 9892   1.128   2.835   4.228
 2466SOL     OW 9893   1.106   3.079   4.114
 2466SOL    HW2 9894   1.178   3.138   4.136
 2466SOL    HW3 9895   1.106   3.074   4.018
 2466SOL    MW4 9896   1.115   3.086   4.104
 2467SOL     OW 9897   0.901   3.212   4.254
 2467SOL    HW2 9898   0.935   3.219   4.343
 2467SOL    HW3 9899   0.971   3.171   4.204
 2467SOL    MW4 9900   0.914   3.208   4.259
 2468SOL     OW 9901   0.852   3.487   4.212
 2468SOL    HW2 9902   0.857   3.392   4.211
 2468SOL    HW3 9903   0.895   3.515   4.131
 2468SOL    MW4 9904   0.858   3.478   4.201
 2469SOL     OW 9905   0.977   3.660   4.419
 2469SOL    HW2 9906   0.948   3.733   4.363
 2469SOL    HW3 9907   0.957   3.582   4.367
 2469SOL    MW4 9908   0.970   3.659   4.404
 2470SOL     OW 9909   1.150   3.818   4.133
 2470SOL    HW2 9910   1.211   3.858   4.194
 2470SOL    HW3 9911   1.064   3.844   4.165
 2470SOL    MW4 9912   1.147   3.827   4.145
 2471SOL     OW 9913   0.906   3.867   4.239
 2471SOL    HW2 9914   0.919   3.960   4.260
 2471SOL    HW3 9915   0.816   3.863   4.205
 2471SOL    MW4 9916   0.896   3.879   4.237
 2472SOL     OW 9917   1.057   4.295   4.093
 2472SOL    HW2 9918   1.136   4.247   4.117
 2472SOL    HW3 9919   0.989   4.262   4.152
 2472SOL    MW4 9920   1.058   4.284   4.104
 2473SOL     OW 9921   1.044   4.272   4.503
 2473SOL    HW2 9922   1.092   4.354   4.490
 2473SOL    HW3 9923   1.107   4.213   4.544
 2473SOL    MW4 9924   1.059   4.275   4.506
 2474SOL     OW 9925   1.524   4.634   4.109
 2474SOL    HW2 9926   1.598   4.690   4.133
 2474SOL    HW3 9927   1.447   4.684   4.138
 2474SOL    MW4 9928   1.523   4.648   4.116
 2475SOL     OW 9929   1.299   0.099   4.223
 2475SOL    HW2 9930   1.311   0.066   4.313
 2475SOL    HW3 9931   1.226   0.047   4.189
 2475SOL    MW4 9932   1.291   0.087   4.231
 2476SOL     OW 9933   1.366   0.335   4.126
 2476SOL    HW2 9934   1.439   0.380   4.170
 2476SOL    HW3 9935   1.350   0.257   4.179
 2476SOL    MW4 9936   1.374   0.331   4.139
 2477SOL     OW 9937   1.571   0.483   4.254
 2477SOL    HW2 9938   1.561   0.493   4.348
 2477SOL    HW3 9939   1.571   0.572   4.220
 2477SOL    MW4 9940   1.570   0.496   4.262
 2478SOL     OW 9941   1.573   0.750   4.134
 2478SOL    HW2 9942   1.652   0.792   4.168
 2478SOL    HW3 9943   1.596   0.723   4.046
 2478SOL    MW4 9944   1.586   0.752   4.127
 2479SOL     OW 9945   1.342   0.885   4.216
 2479SOL    HW2 9946   1.349   0.962   4.160
 2479SOL    HW3 9947   1.427   0.841   4.206
 2479SOL    MW4 9948   1.354   0.889   4.207
 2480SOL     OW 9949   1.350   1.113   4.064
 2480SOL    HW2 9950   1.282   1.167   4.104
 2480SOL    HW3 9951   1.331   1.116   3.970
 2480SOL    MW4 9952   1.339   1.121   4.057
 2481SOL     OW 9953   1.569   1.264   4.196
 2481SOL    HW2 9954   1.553   1.241   4.288
 2481SOL    HW3 9955   1.499   1.219   4.148
 2481SOL    MW4 9956   1.558   1.255   4.202
 2482SOL     OW 9957   1.576   1.531   4.114
 2482SOL    HW2 9958   1.508   1.562   4.175
 2482SOL    HW3 9959   1.586   1.438   4.134
 2482SOL    MW4 9960   1.568   1.523   4.125
 2483SOL     OW 9961   1.399   1.624   4.295
 2483SOL    HW2 9962   1.421   1.713   4.269
 2483SOL    HW3 9963   1.324   1.600   4.240
 2483SOL    MW4 9964   1.392   1.632   4.285
 2484SOL     OW 9965   1.460   1.872   4.170
 2484SOL    HW2 9966   1.530   1.923   4.210
 2484SOL    HW3 9967   1.382   1.927   4.181
 2484SOL    MW4 9968   1.459   1.886   4.177
 2485SOL     OW 9969   1.666   2.065   4.299
 2485SOL    HW2 9970   1.739   2.050   4.239
 2485SOL    HW3 9971   1.632   2.151   4.274
 2485SOL    MW4 9972   1.671   2.075   4.287
 2486SOL     OW 9973   1.604   2.311   4.190
 2486SOL    HW2 9974   1.673   2.364   4.228
 2486SOL    HW3 9975   1.609   2.328   4.096
 2486SOL    MW4 9976   1.614   2.320   4.182
 2487SOL     OW 9977   1.548   2.914   4.244
 2487SOL    HW2 9978   1.519   2.882   4.329
 2487SOL    HW3 9979   1.624   2.860   4.222
 2487SOL    MW4 9980   1.554   2.903   4.252
 2488SOL     OW 9981   1.366   2.721   4.127
 2488SOL    HW2 9982   1.436   2.767   4.173
 2488SOL    HW3 9983   1.286   2.749   4.171
 2488SOL    MW4 9984   1.365   2.731   4.139
 2489SOL     OW 9985   1.710   2.300   4.584
 2489SOL    HW2 9986   1.709   2.357   4.661
 2489SOL    HW3 9987   1.785   2.242   4.599
 2489SOL    MW4 9988   1.720   2.300   4.596
 2490SOL     OW 9989   1.552   3.161   4.145
 2490SOL    HW2 9990   1.594   3.210   4.214
 2490SOL    HW3 9991   1.546   3.071   4.179
 2490SOL    MW4 9992   1.556   3.155   4.158
 2491SOL     OW 9993   1.296   3.279   4.188
 2491SOL    HW2 9994   1.377   3.235   4.164
 2491SOL    HW3 9995   1.298   3.362   4.140
 2491SOL    MW4 9996   1.307   3.285   4.178
 2492SOL     OW 9997   1.284   3.559   4.113
 2492SOL    HW2 9998   1.231   3.638   4.124
 2492SOL    HW3 9999   1.310   3.560   4.021
 2492SOL    MW410000   1.281   3.570   4.102
 2493SOL     OW10001   1.535   3.611   4.278
 2493SOL    HW210002   1.555   3.621   4.371
 2493SOL    HW310003   1.441   3.593   4.276
 2493SOL    MW410004   1.526   3.610   4.290
 2494SOL     OW10005   1.555   3.880   4.192
 2494SOL    HW210006   1.475   3.901   4.240
 2494SOL    HW310007   1.566   3.786   4.202
 2494SOL    MW410008   1.546   3.871   4.199
 2495SOL     OW10009   1.314   3.989   4.292
 2495SOL    HW210010   1.298   4.022   4.380
 2495SOL    HW310011   1.313   4.067   4.236
 2495SOL    MW410012   1.312   4.003   4.296
 2496SOL     OW10013   1.316   4.194   4.122
 2496SOL    HW210014   1.390   4.243   4.158
 2496SOL    HW310015   1.316   4.215   4.028
 2496SOL    MW410016   1.326   4.203   4.114
 2497SOL     OW10017   1.519   4.363   4.215
 2497SOL    HW210018   1.536   4.456   4.201
 2497SOL    HW310019   1.591   4.318   4.172
 2497SOL    MW410020   1.531   4.369   4.207
 2498SOL     OW10021   1.985   4.611   4.100
 2498SOL    HW210022   1.910   4.659   4.135
 2498SOL    HW310023   1.965   4.600   4.007
 2498SOL    MW410024   1.973   4.616   4.092
 2499SOL     OW10025   1.761   0.118   4.184
 2499SOL    HW210026   1.768   0.145   4.275
 2499SOL    HW310027   1.753   0.201   4.135
 2499SOL    MW410028   1.761   0.133   4.189
 2500SOL     OW10029   1.755   0.377   4.072
 2500SOL    HW210030   1.836   0.411   4.110
 2500SOL    HW310031   1.686   0.410   4.130
 2500SOL    MW410032   1.757   0.386   4.085
 2501SOL     OW10033   1.965   0.529   4.203
 2501SOL    HW210034   1.948   0.478   4.283
 2501SOL    HW310035   2.041   0.486   4.163
 2501SOL    MW410036   1.972   0.516   4.208
 2502SOL     OW10037   1.989   0.779   4.082
 2502SOL    HW210038   2.059   0.821   4.132
 2502SOL    HW310039   1.977   0.694   4.125
 2502SOL    MW410040   1.997   0.773   4.095
 2503SOL     OW10041   1.784   0.868   4.252
 2503SOL    HW210042   1.788   0.962   4.235
 2503SOL    HW310043   1.863   0.833   4.210
 2503SOL    MW410044   1.795   0.876   4.245
 2504SOL     OW10045   1.834   1.145   4.155
 2504SOL    HW210046   1.900   1.203   4.192
 2504SOL    HW310047   1.751   1.189   4.173
 2504SOL    MW410048   1.832   1.159   4.163
 2505SOL     OW10049   2.022   1.301   4.277
 2505SOL    HW210050   2.092   1.270   4.219
 2505SOL    HW310051   1.989   1.380   4.234
 2505SOL    MW410052   2.027   1.307   4.264
 2506SOL     OW10053   1.983   1.542   4.141
 2506SOL    HW210054   2.067   1.580   4.166
 2506SOL    HW310055   1.996   1.511   4.051
 2506SOL    MW410056   1.995   1.543   4.132
 2507SOL     OW10057   1.778   1.703   4.215
 2507SOL    HW210058   1.849   1.646   4.185
 2507SOL    HW310059   1.699   1.664   4.179
 2507SOL    MW410060   1.777   1.690   4.207
 2508SOL     OW10061   1.883   1.959   4.152
 2508SOL    HW210062   1.858   1.870   4.177
 2508SOL    HW310063   1.961   1.978   4.205
 2508SOL    MW410064   1.890   1.950   4.162
 2509SOL     OW10065   1.792   2.445   4.332
 2509SOL    HW210066   1.780   2.422   4.424
 2509SOL    HW310067   1.863   2.509   4.332
 2509SOL    MW410068   1.800   2.451   4.344
 2510SOL     OW10069   2.569   2.341   4.169
 2510SOL    HW210070   2.525   2.336   4.084
 2510SOL    HW310071   2.514   2.289   4.227
 2510SOL    MW410072   2.556   2.333   4.166
 2511SOL     OW10073   1.698   2.987   4.542
 2511SOL    HW210074   1.657   2.903   4.520
 2511SOL    HW310075   1.761   3.001   4.471
 2511SOL    MW410076   1.701   2.978   4.530
 2512SOL     OW10077   1.785   2.752   4.117
 2512SOL    HW210078   1.842   2.713   4.184
 2512SOL    HW310079   1.820   2.840   4.104
 2512SOL    MW410080   1.797   2.759   4.124
 2513SOL     OW10081   1.889   3.059   4.360
 2513SOL    HW210082   1.977   3.046   4.397
 2513SOL    HW310083   1.898   3.031   4.269
 2513SOL    MW410084   1.902   3.053   4.353
 2514SOL     OW10085   2.174   2.899   4.117
 2514SOL    HW210086   2.233   2.974   4.119
 2514SOL    HW310087   2.170   2.868   4.207
 2514SOL    MW410088   2.181   2.905   4.129
 2515SOL     OW10089   1.716   3.290   4.330
 2515SOL    HW210090   1.757   3.360   4.279
 2515SOL    HW310091   1.788   3.230   4.349
 2515SOL    MW410092   1.731   3.292   4.326
 2516SOL     OW10093   1.778   3.522   4.190
 2516SOL    HW210094   1.691   3.547   4.222
 2516SOL    HW310095   1.776   3.543   4.097
 2516SOL    MW410096   1.766   3.528   4.182
 2517SOL     OW10097   2.034   3.633   4.187
 2517SOL    HW210098   2.026   3.727   4.173
 2517SOL    HW310099   1.945   3.605   4.210
 2517SOL    MW410100   2.021   3.642   4.188
 2518SOL     OW10101   2.026   3.907   4.151
 2518SOL    HW210102   1.940   3.942   4.174
 2518SOL    HW310103   2.022   3.894   4.057
 2518SOL    MW410104   2.014   3.910   4.142
 2519SOL     OW10105   1.793   4.015   4.237
 2519SOL    HW210106   1.793   4.100   4.193
 2519SOL    HW310107   1.710   3.974   4.209
 2519SOL    MW410108   1.782   4.020   4.227
 2520SOL     OW10109   1.744   4.254   4.105
 2520SOL    HW210110   1.827   4.294   4.129
 2520SOL    HW310111   1.740   4.263   4.010
 2520SOL    MW410112   1.754   4.260   4.096
 2521SOL     OW10113   1.987   4.359   4.196
 2521SOL    HW210114   1.985   4.336   4.288
 2521SOL    HW310115   1.974   4.454   4.195
 2521SOL    MW410116   1.985   4.369   4.208
 2522SOL     OW10117   2.436   0.008   4.113
 2522SOL    HW210118   2.516   0.051   4.143
 2522SOL    HW310119   2.442  -0.081   4.147
 2522SOL    MW410120   2.447   0.002   4.121
 2523SOL     OW10121   2.190   0.128   4.170
 2523SOL    HW210122   2.273   0.091   4.139
 2523SOL    HW310123   2.124   0.064   4.147
 2523SOL    MW410124   2.192   0.115   4.163
 2524SOL     OW10125   2.206   0.396   4.093
 2524SOL    HW210126   2.208   0.309   4.133
 2524SOL    HW310127   2.205   0.379   3.998
 2524SOL    MW410128   2.206   0.382   4.085
 2525SOL     OW10129   2.460   0.482   4.225
 2525SOL    HW210130   2.531   0.435   4.181
 2525SOL    HW310131   2.381   0.456   4.178
 2525SOL    MW410132   2.459   0.472   4.213
 2526SOL     OW10133   2.415   0.753   4.171
 2526SOL    HW210134   2.439   0.663   4.194
 2526SOL    HW310135   2.423   0.756   4.075
 2526SOL    MW410136   2.419   0.741   4.161
 2527SOL     OW10137   2.183   0.901   4.218
 2527SOL    HW210138   2.175   0.889   4.312
 2527SOL    HW310139   2.261   0.852   4.193
 2527SOL    MW410140   2.192   0.893   4.227
 2528SOL     OW10141   2.185   1.157   4.104
 2528SOL    HW210142   2.274   1.179   4.130
 2528SOL    HW310143   2.171   1.069   4.137
 2528SOL    MW410144   2.195   1.149   4.112
 2529SOL     OW10145   2.447   1.222   4.198
 2529SOL    HW210146   2.422   1.215   4.290
 2529SOL    HW310147   2.541   1.202   4.198
 2529SOL    MW410148   2.456   1.218   4.210
 2530SOL     OW10149   2.467   1.481   4.112
 2530SOL    HW210150   2.453   1.393   4.148
 2530SOL    HW310151   2.496   1.466   4.022
 2530SOL    MW410152   2.469   1.467   4.105
 2531SOL     OW10153   2.233   1.629   4.231
 2531SOL    HW210154   2.308   1.575   4.203
 2531SOL    HW310155   2.255   1.717   4.201
 2531SOL    MW410156   2.246   1.634   4.223
 2532SOL     OW10157   2.332   1.873   4.153
 2532SOL    HW210158   2.426   1.885   4.143
 2532SOL    HW310159   2.304   1.947   4.208
 2532SOL    MW410160   2.341   1.885   4.159
 2533SOL     OW10161   2.426   2.157   4.314
 2533SOL    HW210162   2.346   2.199   4.344
 2533SOL    HW310163   2.490   2.173   4.384
 2533SOL    MW410164   2.424   2.165   4.327
 2534SOL     OW10165   2.708   2.583   4.099
 2534SOL    HW210166   2.635   2.525   4.123
 2534SOL    HW310167   2.748   2.607   4.183
 2534SOL    MW410168   2.704   2.578   4.113
 2535SOL     OW10169   2.562   2.500   4.446
 2535SOL    HW210170   2.494   2.513   4.380
 2535SOL    HW310171   2.542   2.566   4.513
 2535SOL    MW410172   2.550   2.511   4.446
 2536SOL     OW10173   1.984   2.629   4.271
 2536SOL    HW210174   2.045   2.697   4.300
 2536SOL    HW310175   2.038   2.568   4.221
 2536SOL    MW410176   1.999   2.630   4.268
 2537SOL     OW10177   2.519   2.862   4.326
 2537SOL    HW210178   2.495   2.777   4.288
 2537SOL    HW310179   2.453   2.876   4.394
 2537SOL    MW410180   2.507   2.852   4.330
 2538SOL     OW10181   2.220   3.233   4.322
 2538SOL    HW210182   2.198   3.146   4.354
 2538SOL    HW310183   2.273   3.272   4.392
 2538SOL    MW410184   2.224   3.227   4.335
 2539SOL     OW10185   1.900   3.002   4.072
 2539SOL    HW210186   1.895   3.068   4.002
 2539SOL    HW310187   1.993   2.980   4.076
 2539SOL    MW410188   1.912   3.008   4.063
 2540SOL     OW10189   2.272   3.475   4.182
 2540SOL    HW210190   2.267   3.387   4.219
 2540SOL    HW310191   2.183   3.510   4.191
 2540SOL    MW410192   2.259   3.468   4.188
 2541SOL     OW10193   2.462   3.648   4.298
 2541SOL    HW210194   2.403   3.582   4.263
 2541SOL    HW310195   2.440   3.728   4.250
 2541SOL    MW410196   2.451   3.650   4.287
 2542SOL     OW10197   2.439   3.869   4.116
 2542SOL    HW210198   2.521   3.899   4.156
 2542SOL    HW310199   2.457   3.869   4.022
 2542SOL    MW410200   2.452   3.873   4.109
 2543SOL     OW10201   2.265   4.024   4.256
 2543SOL    HW210202   2.326   3.973   4.202
 2543SOL    HW310203   2.179   3.986   4.237
 2543SOL    MW410204   2.262   4.012   4.246
 2544SOL     OW10205   2.225   4.277   4.082
 2544SOL    HW210206   2.241   4.192   4.124
 2544SOL    HW310207   2.139   4.303   4.115
 2544SOL    MW410208   2.216   4.269   4.092
 2545SOL     OW10209   2.441   4.420   4.216
 2545SOL    HW210210   2.519   4.365   4.207
 2545SOL    HW310211   2.370   4.368   4.180
 2545SOL    MW410212   2.442   4.406   4.210
 2546SOL     OW10213   2.904   4.632   4.107
 2546SOL    HW210214   2.948   4.699   4.161
 2546SOL    HW310215   2.957   4.554   4.118
 2546SOL    MW410216   2.917   4.631   4.116
 2547SOL     OW10217   2.681   0.093   4.197
 2547SOL    HW210218   2.677   0.179   4.154
 2547SOL    HW310219   2.752   0.048   4.152
 2547SOL    MW410220   2.690   0.098   4.185
 2548SOL     OW10221   2.669   0.349   4.086
 2548SOL    HW210222   2.695   0.356   3.994
 2548SOL    HW310223   2.741   0.391   4.134
 2548SOL    MW410224   2.682   0.355   4.080
 2549SOL     OW10225   3.305   0.777   4.167
 2549SOL    HW210226   3.347   0.838   4.227
 2549SOL    HW310227   3.214   0.805   4.162
 2549SOL    MW410228   3.299   0.788   4.174
 2550SOL     OW10229   3.029   0.838   4.125
 2550SOL    HW210230   3.061   0.926   4.107
 2550SOL    HW310231   3.002   0.804   4.040
 2550SOL    MW410232   3.030   0.845   4.111
 2551SOL     OW10233   2.601   0.932   4.273
 2551SOL    HW210234   2.687   0.896   4.297
 2551SOL    HW310235   2.554   0.858   4.235
 2551SOL    MW410236   2.606   0.917   4.271
 2552SOL     OW10237   2.707   1.165   4.157
 2552SOL    HW210238   2.668   1.080   4.177
 2552SOL    HW310239   2.719   1.164   4.062
 2552SOL    MW410240   2.703   1.154   4.147
 2553SOL     OW10241   2.859   1.345   4.327
 2553SOL    HW210242   2.946   1.312   4.306
 2553SOL    HW310243   2.799   1.283   4.287
 2553SOL    MW410244   2.863   1.333   4.319
 2554SOL     OW10245   2.870   1.585   4.159
 2554SOL    HW210246   2.942   1.639   4.193
 2554SOL    HW310247   2.875   1.504   4.210
 2554SOL    MW410248   2.880   1.582   4.170
 2555SOL     OW10249   2.629   1.672   4.232
 2555SOL    HW210250   2.720   1.645   4.219
 2555SOL    HW310251   2.577   1.600   4.195
 2555SOL    MW410252   2.634   1.659   4.226
 2556SOL     OW10253   2.603   1.919   4.136
 2556SOL    HW210254   2.622   1.829   4.162
 2556SOL    HW310255   2.623   1.922   4.043
 2556SOL    MW410256   2.608   1.907   4.127
 2557SOL     OW10257   2.831   2.047   4.268
 2557SOL    HW210258   2.853   2.135   4.239
 2557SOL    HW310259   2.750   2.025   4.222
 2557SOL    MW410260   2.823   2.055   4.258
 2558SOL     OW10261   2.905   2.310   4.193
 2558SOL    HW210262   2.968   2.377   4.218
 2558SOL    HW310263   2.821   2.357   4.186
 2558SOL    MW410264   2.902   2.325   4.195
 2559SOL     OW10265   2.740   3.228   4.404
 2559SOL    HW210266   2.747   3.310   4.454
 2559SOL    HW310267   2.668   3.181   4.447
 2559SOL    MW410268   2.731   3.233   4.417
 2560SOL     OW10269   2.403   3.063   4.183
 2560SOL    HW210270   2.434   2.987   4.233
 2560SOL    HW310271   2.346   3.110   4.245
 2560SOL    MW410272   2.400   3.059   4.198
 2561SOL     OW10273   2.939   2.917   4.173
 2561SOL    HW210274   2.956   2.983   4.241
 2561SOL    HW310275   2.930   2.968   4.092
 2561SOL    MW410276   2.940   2.933   4.171
 2562SOL     OW10277   3.005   3.106   4.363
 2562SOL    HW210278   3.019   3.037   4.428
 2562SOL    HW310279   2.919   3.142   4.384
 2562SOL    MW410280   2.995   3.101   4.374
 2563SOL     OW10281   2.600   3.269   4.165
 2563SOL    HW210282   2.532   3.203   4.177
 2563SOL    HW310283   2.664   3.250   4.233
 2563SOL    MW410284   2.599   3.258   4.175
 2564SOL     OW10285   2.637   3.535   4.143
 2564SOL    HW210286   2.618   3.444   4.164
 2564SOL    HW310287   2.576   3.586   4.196
 2564SOL    MW410288   2.626   3.530   4.153
 2565SOL     OW10289   2.901   3.605   4.194
 2565SOL    HW210290   2.907   3.610   4.289
 2565SOL    HW310291   2.811   3.576   4.177
 2565SOL    MW410292   2.890   3.602   4.204
 2566SOL     OW10293   2.920   3.884   4.133
 2566SOL    HW210294   2.990   3.903   4.196
 2566SOL    HW310295   2.909   3.789   4.138
 2566SOL    MW410296   2.928   3.874   4.142
 2567SOL     OW10297   2.662   3.993   4.246
 2567SOL    HW210298   2.668   4.087   4.231
 2567SOL    HW310299   2.744   3.958   4.210
 2567SOL    MW410300   2.674   4.000   4.239
 2568SOL     OW10301   2.663   4.258   4.165
 2568SOL    HW210302   2.745   4.278   4.209
 2568SOL    HW310303   2.682   4.270   4.072
 2568SOL    MW410304   2.676   4.262   4.159
 2569SOL     OW10305   2.891   4.303   4.290
 2569SOL    HW210306   2.895   4.377   4.350
 2569SOL    HW310307   2.925   4.229   4.341
 2569SOL    MW410308   2.896   4.303   4.305
 2570SOL     OW10309   3.324   0.041   4.192
 2570SOL    HW210310   3.401   0.058   4.247
 2570SOL    HW310311   3.308  -0.053   4.202
 2570SOL    MW410312   3.332   0.031   4.201
 2571SOL     OW10313   3.073   0.167   4.233
 2571SOL    HW210314   3.048   0.190   4.322
 2571SOL    HW310315   3.164   0.138   4.241
 2571SOL    MW410316   3.082   0.166   4.246
 2572SOL     OW10317   3.098   0.449   4.119
 2572SOL    HW210318   3.167   0.490   4.171
 2572SOL    HW310319   3.082   0.365   4.160
 2572SOL    MW410320   3.105   0.443   4.131
 2573SOL     OW10321   3.312   0.515   4.284
 2573SOL    HW210322   3.394   0.474   4.256
 2573SOL    HW310323   3.319   0.606   4.256
 2573SOL    MW410324   3.324   0.521   4.277
 2574SOL     OW10325   3.448   0.910   4.376
 2574SOL    HW210326   3.457   1.003   4.356
 2574SOL    HW310327   3.394   0.906   4.455
 2574SOL    MW410328   3.442   0.921   4.384
 2575SOL     OW10329   3.071   1.093   4.488
 2575SOL    HW210330   3.120   1.018   4.520
 2575SOL    HW310331   2.979   1.071   4.503
 2575SOL    MW410332   3.065   1.081   4.494
 2576SOL     OW10333   3.193   1.073   4.089
 2576SOL    HW210334   3.191   1.142   4.155
 2576SOL    HW310335   3.196   1.119   4.006
 2576SOL    MW410336   3.193   1.088   4.087
 2577SOL     OW10337   3.530   1.166   4.352
 2577SOL    HW210338   3.551   1.136   4.440
 2577SOL    HW310339   3.472   1.241   4.364
 2577SOL    MW410340   3.525   1.172   4.365
 2578SOL     OW10341   3.372   1.387   4.371
 2578SOL    HW210342   3.359   1.452   4.302
 2578SOL    HW310343   3.415   1.436   4.442
 2578SOL    MW410344   3.376   1.402   4.371
 2579SOL     OW10345   3.090   1.701   4.256
 2579SOL    HW210346   3.085   1.705   4.351
 2579SOL    HW310347   3.072   1.791   4.228
 2579SOL    MW410348   3.087   1.714   4.265
 2580SOL     OW10349   3.039   1.948   4.122
 2580SOL    HW210350   3.093   2.018   4.160
 2580SOL    HW310351   2.954   1.958   4.163
 2580SOL    MW410352   3.035   1.959   4.132
 2581SOL     OW10353   3.249   2.096   4.235
 2581SOL    HW210354   3.333   2.052   4.222
 2581SOL    HW310355   3.263   2.184   4.202
 2581SOL    MW410356   3.262   2.102   4.229
 2582SOL     OW10357   3.329   2.366   4.119
 2582SOL    HW210358   3.411   2.401   4.153
 2582SOL    HW310359   3.340   2.366   4.024
 2582SOL    MW410360   3.341   2.371   4.111
 2583SOL     OW10361   3.122   2.483   4.270
 2583SOL    HW210362   3.115   2.567   4.225
 2583SOL    HW310363   3.186   2.434   4.219
 2583SOL    MW410364   3.130   2.488   4.258
 2584SOL     OW10365   3.125   2.718   4.140
 2584SOL    HW210366   3.211   2.756   4.158
 2584SOL    HW310367   3.063   2.788   4.161
 2584SOL    MW410368   3.128   2.732   4.145
 2585SOL     OW10369   3.354   2.835   4.224
 2585SOL    HW210370   3.368   2.927   4.201
 2585SOL    HW310371   3.438   2.793   4.207
 2585SOL    MW410372   3.367   2.841   4.219
 2586SOL     OW10373   3.394   3.088   4.153
 2586SOL    HW210374   3.320   3.139   4.188
 2586SOL    HW310375   3.386   3.097   4.058
 2586SOL    MW410376   3.383   3.096   4.145
 2587SOL     OW10377   3.212   3.248   4.255
 2587SOL    HW210378   3.177   3.317   4.198
 2587SOL    HW310379   3.134   3.200   4.285
 2587SOL    MW410380   3.197   3.251   4.252
 2588SOL     OW10381   3.145   3.474   4.115
 2588SOL    HW210382   3.064   3.503   4.157
 2588SOL    HW310383   3.133   3.495   4.022
 2588SOL    MW410384   3.132   3.480   4.108
 2589SOL     OW10385   3.352   3.614   4.226
 2589SOL    HW210386   3.320   3.615   4.316
 2589SOL    HW310387   3.279   3.579   4.175
 2589SOL    MW410388   3.338   3.609   4.231
 2590SOL     OW10389   3.351   3.884   4.117
 2590SOL    HW210390   3.337   3.790   4.129
 2590SOL    HW310391   3.353   3.896   4.023
 2590SOL    MW410392   3.349   3.873   4.106
 2591SOL     OW10393   3.160   3.953   4.304
 2591SOL    HW210394   3.200   3.937   4.389
 2591SOL    HW310395   3.227   3.927   4.241
 2591SOL    MW410396   3.174   3.947   4.307
 2592SOL     OW10397   3.069   4.388   4.094
 2592SOL    HW210398   3.137   4.413   4.156
 2592SOL    HW310399   3.004   4.342   4.149
 2592SOL    MW410400   3.069   4.385   4.110
 2593SOL     OW10401   3.305   4.430   4.260
 2593SOL    HW210402   3.323   4.452   4.351
 2593SOL    HW310403   3.387   4.394   4.228
 2593SOL    MW410404   3.318   4.428   4.268
 2594SOL     OW10405   3.774   0.035   4.199
 2594SOL    HW210406   3.864   0.063   4.219
 2594SOL    HW310407   3.763   0.058   4.106
 2594SOL    MW410408   3.785   0.042   4.189
 2595SOL     OW10409   3.545   0.141   4.320
 2595SOL    HW210410   3.531   0.223   4.273
 2595SOL    HW310411   3.628   0.107   4.285
 2595SOL    MW410412   3.554   0.147   4.309
 2596SOL     OW10413   3.557   0.385   4.181
 2596SOL    HW210414   3.623   0.447   4.211
 2596SOL    HW310415   3.582   0.365   4.091
 2596SOL    MW410416   3.569   0.391   4.173
 2597SOL     OW10417   3.807   0.498   4.290
 2597SOL    HW210418   3.847   0.468   4.371
 2597SOL    HW310419   3.742   0.563   4.318
 2597SOL    MW410420   3.804   0.503   4.305
 2598SOL     OW10421   3.824   0.842   4.124
 2598SOL    HW210422   3.794   0.933   4.133
 2598SOL    HW310423   3.806   0.820   4.033
 2598SOL    MW410424   3.818   0.851   4.113
 2599SOL     OW10425   3.677   0.740   4.337
 2599SOL    HW210426   3.600   0.796   4.327
 2599SOL    HW310427   3.735   0.765   4.265
 2599SOL    MW410428   3.675   0.750   4.326
 2600SOL     OW10429   3.701   1.102   4.134
 2600SOL    HW210430   3.628   1.123   4.192
 2600SOL    HW310431   3.668   1.123   4.046
 2600SOL    MW410432   3.687   1.108   4.130
 2601SOL     OW10433   3.812   1.326   4.256
 2601SOL    HW210434   3.785   1.253   4.202
 2601SOL    HW310435   3.765   1.314   4.339
 2601SOL    MW410436   3.802   1.315   4.260
 2602SOL     OW10437   3.783   1.584   4.151
 2602SOL    HW210438   3.781   1.503   4.201
 2602SOL    HW310439   3.842   1.641   4.201
 2602SOL    MW410440   3.790   1.581   4.164
 2603SOL     OW10441   3.499   1.976   4.164
 2603SOL    HW210442   3.504   1.969   4.068
 2603SOL    HW310443   3.485   1.886   4.193
 2603SOL    MW410444   3.498   1.963   4.155
 2604SOL     OW10445   3.323   1.575   4.177
 2604SOL    HW210446   3.332   1.558   4.084
 2604SOL    HW310447   3.243   1.627   4.185
 2604SOL    MW410448   3.314   1.580   4.166
 2605SOL     OW10449   3.759   2.055   4.192
 2605SOL    HW210450   3.788   2.075   4.281
 2605SOL    HW310451   3.666   2.031   4.202
 2605SOL    MW410452   3.750   2.054   4.205
 2606SOL     OW10453   3.772   2.330   4.139
 2606SOL    HW210454   3.761   2.236   4.146
 2606SOL    HW310455   3.789   2.345   4.046
 2606SOL    MW410456   3.773   2.320   4.128
 2607SOL     OW10457   3.537   2.473   4.235
 2607SOL    HW210458   3.497   2.438   4.315
 2607SOL    HW310459   3.618   2.422   4.225
 2607SOL    MW410460   3.542   2.461   4.244
 2608SOL     OW10461   3.601   2.729   4.163
 2608SOL    HW210462   3.580   2.639   4.189
 2608SOL    HW310463   3.588   2.730   4.069
 2608SOL    MW410464   3.597   2.717   4.154
 2609SOL     OW10465   3.867   2.813   4.198
 2609SOL    HW210466   3.907   2.817   4.284
 2609SOL    HW310467   3.776   2.788   4.214
 2609SOL    MW410468   3.860   2.810   4.211
 2610SOL     OW10469   3.823   3.070   4.113
 2610SOL    HW210470   3.836   2.981   4.146
 2610SOL    HW310471   3.833   3.062   4.018
 2610SOL    MW410472   3.826   3.057   4.105
 2611SOL     OW10473   3.600   3.265   4.149
 2611SOL    HW210474   3.674   3.208   4.129
 2611SOL    HW310475   3.524   3.207   4.150
 2611SOL    MW410476   3.600   3.250   4.147
 2612SOL     OW10477   3.594   3.535   4.134
 2612SOL    HW210478   3.596   3.440   4.142
 2612SOL    HW310479   3.510   3.560   4.173
 2612SOL    MW410480   3.583   3.526   4.140
 2613SOL     OW10481   3.795   3.689   4.232
 2613SOL    HW210482   3.867   3.626   4.227
 2613SOL    HW310483   3.719   3.640   4.201
 2613SOL    MW410484   3.794   3.674   4.227
 2614SOL     OW10485   3.789   3.907   4.059
 2614SOL    HW210486   3.711   3.957   4.085
 2614SOL    HW310487   3.779   3.823   4.105
 2614SOL    MW410488   3.777   3.902   4.069
 2615SOL     OW10489   3.572   4.045   4.182
 2615SOL    HW210490   3.584   4.026   4.275
 2615SOL    HW310491   3.497   3.990   4.157
 2615SOL    MW410492   3.564   4.035   4.191
 2616SOL     OW10493   3.552   4.329   4.149
 2616SOL    HW210494   3.626   4.362   4.198
 2616SOL    HW310495   3.567   4.235   4.142
 2616SOL    MW410496   3.564   4.321   4.155
 2617SOL     OW10497   3.756   4.432   4.297
 2617SOL    HW210498   3.839   4.403   4.258
 2617SOL    HW310499   3.753   4.526   4.277
 2617SOL    MW410500   3.767   4.441   4.289
 2618SOL     OW10501   4.227   4.653   4.135
 2618SOL    HW210502   4.233   4.566   4.175
 2618SOL    HW310503   4.311   4.695   4.155
 2618SOL    MW410504   4.239   4.647   4.143
 2619SOL     OW10505   4.026   0.128   4.267
 2619SOL    HW210506   4.027   0.216   4.228
 2619SOL    HW310507   4.085   0.077   4.212
 2619SOL    MW410508   4.034   0.133   4.254
 2620SOL     OW10509   3.998   0.367   4.129
 2620SOL    HW210510   4.078   0.415   4.153
 2620SOL    HW310511   3.927   0.417   4.168
 2620SOL    MW410512   3.999   0.380   4.137
 2621SOL     OW10513   4.273   0.478   4.195
 2621SOL    HW210514   4.290   0.567   4.162
 2621SOL    HW310515   4.340   0.424   4.154
 2621SOL    MW410516   4.284   0.483   4.185
 2622SOL     OW10517   4.320   0.736   4.126
 2622SOL    HW210518   4.247   0.797   4.137
 2622SOL    HW310519   4.331   0.728   4.031
 2622SOL    MW410520   4.312   0.743   4.115
 2623SOL     OW10521   4.102   0.935   4.206
 2623SOL    HW210522   4.109   1.026   4.178
 2623SOL    HW310523   4.028   0.900   4.157
 2623SOL    MW410524   4.093   0.942   4.196
 2624SOL     OW10525   4.055   1.218   4.155
 2624SOL    HW210526   4.139   1.254   4.186
 2624SOL    HW310527   3.989   1.266   4.204
 2624SOL    MW410528   4.058   1.229   4.166
 2625SOL     OW10529   4.333   1.282   4.255
 2625SOL    HW210530   4.365   1.325   4.334
 2625SOL    HW310531   4.389   1.205   4.245
 2625SOL    MW410532   4.345   1.278   4.264
 2626SOL     OW10533   4.302   1.522   4.139
 2626SOL    HW210534   4.294   1.430   4.165
 2626SOL    HW310535   4.298   1.520   4.043
 2626SOL    MW410536   4.301   1.510   4.130
 2627SOL     OW10537   4.230   1.911   4.576
 2627SOL    HW210538   4.163   1.877   4.636
 2627SOL    HW310539   4.249   1.838   4.517
 2627SOL    MW410540   4.224   1.897   4.576
 2628SOL     OW10541   3.999   1.936   4.113
 2628SOL    HW210542   3.995   1.861   4.172
 2628SOL    HW310543   3.913   1.979   4.123
 2628SOL    MW410544   3.987   1.932   4.122
 2629SOL     OW10545   4.489   1.929   4.117
 2629SOL    HW210546   4.570   1.961   4.159
 2629SOL    HW310547   4.420   1.983   4.156
 2629SOL    MW410548   4.491   1.941   4.128
 2630SOL     OW10549   4.254   2.331   4.125
 2630SOL    HW210550   4.181   2.374   4.169
 2630SOL    HW310551   4.237   2.238   4.136
 2630SOL    MW410552   4.242   2.324   4.132
 2631SOL     OW10553   4.020   2.437   4.225
 2631SOL    HW210554   4.017   2.444   4.321
 2631SOL    HW310555   3.937   2.394   4.202
 2631SOL    MW410556   4.008   2.432   4.235
 2632SOL     OW10557   4.066   2.674   4.091
 2632SOL    HW210558   4.050   2.594   4.140
 2632SOL    HW310559   3.992   2.731   4.113
 2632SOL    MW410560   4.054   2.671   4.100
 2633SOL     OW10561   4.266   2.815   4.226
 2633SOL    HW210562   4.199   2.768   4.176
 2633SOL    HW310563   4.348   2.771   4.203
 2633SOL    MW410564   4.268   2.803   4.216
 2634SOL     OW10565   4.283   3.069   4.142
 2634SOL    HW210566   4.284   2.977   4.168
 2634SOL    HW310567   4.269   3.067   4.047
 2634SOL    MW410568   4.281   3.057   4.133
 2635SOL     OW10569   4.046   3.205   4.211
 2635SOL    HW210570   4.120   3.151   4.185
 2635SOL    HW310571   3.969   3.154   4.185
 2635SOL    MW410572   4.045   3.191   4.204
 2636SOL     OW10573   4.018   3.471   4.159
 2636SOL    HW210574   4.010   3.378   4.182
 2636SOL    HW310575   4.013   3.473   4.064
 2636SOL    MW410576   4.016   3.459   4.150
 2637SOL     OW10577   4.247   3.543   4.274
 2637SOL    HW210578   4.240   3.636   4.295
 2637SOL    HW310579   4.168   3.524   4.224
 2637SOL    MW410580   4.236   3.552   4.270
 2638SOL     OW10581   4.218   3.921   4.138
 2638SOL    HW210582   4.135   3.966   4.156
 2638SOL    HW310583   4.219   3.909   4.043
 2638SOL    MW410584   4.207   3.925   4.128
 2639SOL     OW10585   3.968   4.025   4.230
 2639SOL    HW210586   3.962   3.986   4.317
 2639SOL    HW310587   3.911   3.970   4.175
 2639SOL    MW410588   3.960   4.012   4.234
 2640SOL     OW10589   3.981   4.304   4.169
 2640SOL    HW210590   4.057   4.339   4.216
 2640SOL    HW310591   3.980   4.211   4.191
 2640SOL    MW410592   3.991   4.296   4.178
 2641SOL     OW10593   0.007   4.287   4.614
 2641SOL    HW210594  -0.065   4.285   4.678
 2641SOL    HW310595   0.024   4.381   4.601
 2641SOL    MW410596  -0.001   4.299   4.620
 2642SOL     OW10597   3.916   4.129   4.648
 2642SOL    HW210598   3.849   4.095   4.707
 2642SOL    HW310599   3.872   4.197   4.598
 2642SOL    MW410600   3.902   4.133   4.649
 2643SOL     OW10601   4.243   4.561   4.515
 2643SOL    HW210602   4.228   4.481   4.564
 2643SOL    HW310603   4.160   4.608   4.517
 2643SOL    MW410604   4.230   4.557   4.521
 2644SOL     OW10605   4.035   0.056   4.529
 2644SOL    HW210606   3.945   0.026   4.544
 2644SOL    HW310607   4.033   0.094   4.441
 2644SOL    MW410608   4.023   0.057   4.519
 2645SOL     OW10609   4.050   1.733   4.717
 2645SOL    HW210610   4.059   1.651   4.667
 2645SOL    HW310611   4.068   1.707   4.808
 2645SOL    MW410612   4.054   1.718   4.722
 2646SOL     OW10613   0.459   0.113   4.486
 2646SOL    HW210614   0.418   0.077   4.565
 2646SOL    HW310615   0.539   0.155   4.517
 2646SOL    MW410616   0.464   0.114   4.501
 2647SOL     OW10617   0.264   0.742   4.582
 2647SOL    HW210618   0.305   0.719   4.666
 2647SOL    HW310619   0.225   0.660   4.552
 2647SOL    MW410620   0.264   0.728   4.589
 2648SOL     OW10621   4.213   0.767   4.594
 2648SOL    HW210622   4.223   0.676   4.564
 2648SOL    HW310623   4.300   0.806   4.582
 2648SOL    MW410624   4.226   0.760   4.588
 2649SOL     OW10625   0.745   1.375   4.467
 2649SOL    HW210626   0.782   1.462   4.458
 2649SOL    HW310627   0.676   1.385   4.533
 2649SOL    MW410628   0.741   1.388   4.475
 2650SOL     OW10629   1.280   1.940   4.490
 2650SOL    HW210630   1.372   1.937   4.517
 2650SOL    HW310631   1.242   2.011   4.541
 2650SOL    MW410632   1.287   1.949   4.500
 2651SOL     OW10633   4.128   1.240   4.532
 2651SOL    HW210634   4.100   1.149   4.524
 2651SOL    HW310635   4.222   1.237   4.516
 2651SOL    MW410636   4.136   1.227   4.529
 2652SOL     OW10637   0.128   1.629   4.450
 2652SOL    HW210638   0.132   1.668   4.363
 2652SOL    HW310639   0.118   1.704   4.509
 2652SOL    MW410640   0.127   1.644   4.446
 2653SOL     OW10641   0.461   1.620   4.206
 2653SOL    HW210642   0.390   1.568   4.167
 2653SOL    HW310643   0.541   1.584   4.169
 2653SOL    MW410644   0.462   1.609   4.196
 2654SOL     OW10645   0.012   1.910   4.585
 2654SOL    HW210646   0.039   1.999   4.564
 2654SOL    HW310647  -0.082   1.917   4.606
 2654SOL    MW410648   0.003   1.922   4.585
 2655SOL     OW10649   4.348   2.355   4.498
 2655SOL    HW210650   4.413   2.408   4.451
 2655SOL    HW310651   4.286   2.418   4.534
 2655SOL    MW410652   4.349   2.370   4.496
 2656SOL     OW10653   0.586   3.144   4.560
 2656SOL    HW210654   0.631   3.065   4.531
 2656SOL    HW310655   0.656   3.205   4.582
 2656SOL    MW410656   0.601   3.142   4.559
 2657SOL     OW10657   0.283   2.785   4.708
 2657SOL    HW210658   0.253   2.777   4.799
 2657SOL    HW310659   0.304   2.878   4.698
 2657SOL    MW410660   0.281   2.796   4.719
 2658SOL     OW10661   0.061   2.501   4.402
 2658SOL    HW210662   0.042   2.515   4.309
 2658SOL    HW310663   0.080   2.588   4.435
 2658SOL    MW410664   0.061   2.514   4.394
 2659SOL     OW10665   3.714   3.245   4.408
 2659SOL    HW210666   3.684   3.260   4.318
 2659SOL    HW310667   3.635   3.257   4.461
 2659SOL    MW410668   3.699   3.249   4.403
 2660SOL     OW10669   0.423   3.336   4.456
 2660SOL    HW210670   0.333   3.336   4.490
 2660SOL    HW310671   0.464   3.259   4.497
 2660SOL    MW410672   0.416   3.326   4.466
 2661SOL     OW10673   3.965   3.908   4.489
 2661SOL    HW210674   3.904   3.837   4.511
 2661SOL    HW310675   3.953   3.973   4.558
 2661SOL    MW410676   3.955   3.907   4.501
 2662SOL     OW10677   4.441   0.096   4.468
 2662SOL    HW210678   4.363   0.042   4.479
 2662SOL    HW310679   4.424   0.174   4.521
 2662SOL    MW410680   4.429   0.099   4.476
 2663SOL     OW10681   3.190   0.451   4.537
 2663SOL    HW210682   3.223   0.472   4.450
 2663SOL    HW310683   3.116   0.392   4.520
 2663SOL    MW410684   3.184   0.446   4.523
 2664SOL     OW10685   3.692   3.969   4.714
 2664SOL    HW210686   3.653   3.883   4.733
 2664SOL    HW310687   3.627   4.032   4.745
 2664SOL    MW410688   3.678   3.966   4.720
 2665SOL     OW10689   3.591   3.709   4.715
 2665SOL    HW210690   3.662   3.705   4.651
 2665SOL    HW310691   3.577   3.618   4.741
 2665SOL    MW410692   3.598   3.696   4.710
 2666SOL     OW10693   0.244   0.264   4.703
 2666SOL    HW210694   0.151   0.257   4.721
 2666SOL    HW310695   0.281   0.180   4.729
 2666SOL    MW410696   0.237   0.252   4.709
 2667SOL     OW10697   3.944   0.642   4.642
 2667SOL    HW210698   3.868   0.701   4.640
 2667SOL    HW310699   4.015   0.697   4.675
 2667SOL    MW410700   3.943   0.657   4.646
 2668SOL     OW10701   1.089   0.677   4.559
 2668SOL    HW210702   1.028   0.751   4.564
 2668SOL    HW310703   1.048   0.617   4.497
 2668SOL    MW410704   1.075   0.679   4.552
 2669SOL     OW10705   0.687   0.240   4.615
 2669SOL    HW210706   0.764   0.186   4.600
 2669SOL    HW310707   0.705   0.320   4.566
 2669SOL    MW410708   0.700   0.244   4.607
 2670SOL     OW10709   0.902   0.889   4.506
 2670SOL    HW210710   0.907   0.870   4.412
 2670SOL    HW310711   0.825   0.841   4.537
 2670SOL    MW410712   0.893   0.880   4.497
 2671SOL     OW10713   0.482   0.899   4.489
 2671SOL    HW210714   0.490   0.891   4.394
 2671SOL    HW310715   0.403   0.848   4.510
 2671SOL    MW410716   0.472   0.891   4.479
 2672SOL     OW10717   2.144   1.197   4.546
 2672SOL    HW210718   2.107   1.241   4.469
 2672SOL    HW310719   2.238   1.209   4.538
 2672SOL    MW410720   2.151   1.204   4.535
 2673SOL     OW10721   0.419   1.604   4.486
 2673SOL    HW210722   0.325   1.623   4.490
 2673SOL    HW310723   0.443   1.616   4.395
 2673SOL    MW410724   0.410   1.608   4.475
 2674SOL     OW10725   1.339   0.969   4.490
 2674SOL    HW210726   1.324   0.934   4.402
 2674SOL    HW310727   1.265   1.028   4.505
 2674SOL    MW410728   1.328   0.972   4.480
 2675SOL     OW10729   0.846   1.639   4.504
 2675SOL    HW210730   0.806   1.725   4.520
 2675SOL    HW310731   0.927   1.640   4.556
 2675SOL    MW410732   0.851   1.651   4.513
 2676SOL     OW10733   0.658   2.145   4.464
 2676SOL    HW210734   0.722   2.216   4.473
 2676SOL    HW310735   0.707   2.066   4.484
 2676SOL    MW410736   0.673   2.144   4.468
 2677SOL     OW10737   1.149   1.721   4.588
 2677SOL    HW210738   1.206   1.644   4.595
 2677SOL    HW310739   1.205   1.788   4.548
 2677SOL    MW410740   1.164   1.720   4.584
 2678SOL     OW10741   0.365   2.188   4.615
 2678SOL    HW210742   0.457   2.163   4.629
 2678SOL    HW310743   0.370   2.268   4.564
 2678SOL    MW410744   0.378   2.195   4.610
 2679SOL     OW10745   0.983   2.629   4.642
 2679SOL    HW210746   0.888   2.622   4.632
 2679SOL    HW310747   1.007   2.710   4.598
 2679SOL    MW410748   0.974   2.639   4.635
 2680SOL     OW10749   0.714   2.612   4.556
 2680SOL    HW210750   0.621   2.636   4.550
 2680SOL    HW310751   0.715   2.518   4.535
 2680SOL    MW410752   0.702   2.602   4.553
 2681SOL     OW10753   1.000   3.187   4.505
 2681SOL    HW210754   1.071   3.251   4.500
 2681SOL    HW310755   0.932   3.230   4.556
 2681SOL    MW410756   1.000   3.201   4.511
 2682SOL     OW10757   0.816   3.611   4.647
 2682SOL    HW210758   0.727   3.620   4.612
 2682SOL    HW310759   0.872   3.643   4.577
 2682SOL    MW410760   0.812   3.616   4.633
 2683SOL     OW10761   1.252   4.471   4.529
 2683SOL    HW210762   1.338   4.430   4.525
 2683SOL    HW310763   1.271   4.564   4.538
 2683SOL    MW410764   1.266   4.478   4.530
 2684SOL     OW10765   0.329   2.427   4.425
 2684SOL    HW210766   0.347   2.408   4.333
 2684SOL    HW310767   0.235   2.445   4.428
 2684SOL    MW410768   0.319   2.427   4.414
 2685SOL     OW10769   4.416   3.219   4.503
 2685SOL    HW210770   4.322   3.230   4.494
 2685SOL    HW310771   4.444   3.184   4.418
 2685SOL    MW410772   4.407   3.216   4.490
 2686SOL     OW10773   1.618   3.649   4.535
 2686SOL    HW210774   1.624   3.560   4.569
 2686SOL    HW310775   1.704   3.687   4.554
 2686SOL    MW410776   1.630   3.643   4.542
 2687SOL     OW10777   0.172   4.083   4.506
 2687SOL    HW210778   0.113   4.008   4.507
 2687SOL    HW310779   0.121   4.155   4.544
 2687SOL    MW410780   0.158   4.083   4.511
 2688SOL     OW10781   0.213   3.837   4.143
 2688SOL    HW210782   0.215   3.746   4.174
 2688SOL    HW310783   0.129   3.871   4.175
 2688SOL    MW410784   0.202   3.829   4.152
 2689SOL     OW10785   0.114   4.545   4.543
 2689SOL    HW210786   0.084   4.628   4.504
 2689SOL    HW310787   0.147   4.495   4.468
 2689SOL    MW410788   0.114   4.550   4.528
 2690SOL     OW10789   0.486   0.396   4.731
 2690SOL    HW210790   0.540   0.335   4.680
 2690SOL    HW310791   0.399   0.356   4.732
 2690SOL    MW410792   0.482   0.383   4.725
 2691SOL     OW10793   0.320   4.652   4.708
 2691SOL    HW210794   0.361   4.579   4.755
 2691SOL    HW310795   0.251   4.611   4.656
 2691SOL    MW410796   0.317   4.637   4.707
 2692SOL     OW10797   0.445   0.657   4.795
 2692SOL    HW210798   0.436   0.640   4.889
 2692SOL    HW310799   0.469   0.573   4.758
 2692SOL    MW410800   0.447   0.644   4.803
 2693SOL     OW10801   1.369   0.699   4.541
 2693SOL    HW210802   1.374   0.794   4.528
 2693SOL    HW310803   1.276   0.681   4.552
 2693SOL    MW410804   1.357   0.709   4.541
 2694SOL     OW10805   1.771   1.111   4.623
 2694SOL    HW210806   1.749   1.110   4.717
 2694SOL    HW310807   1.831   1.185   4.614
 2694SOL    MW410808   1.776   1.121   4.634
 2695SOL     OW10809   0.361   1.170   4.500
 2695SOL    HW210810   0.416   1.092   4.492
 2695SOL    HW310811   0.421   1.240   4.527
 2695SOL    MW410812   0.376   1.169   4.502
 2696SOL     OW10813   0.978   1.880   4.723
 2696SOL    HW210814   1.041   1.813   4.697
 2696SOL    HW310815   1.029   1.961   4.727
 2696SOL    MW410816   0.993   1.882   4.720
 2697SOL     OW10817   0.955   1.187   4.489
 2697SOL    HW210818   0.871   1.232   4.482
 2697SOL    HW310819   0.932   1.094   4.494
 2697SOL    MW410820   0.941   1.180   4.489
 2698SOL     OW10821   1.917   1.386   4.665
 2698SOL    HW210822   2.006   1.354   4.650
 2698SOL    HW310823   1.928   1.480   4.680
 2698SOL    MW410824   1.930   1.394   4.665
 2699SOL     OW10825   1.239   1.247   4.448
 2699SOL    HW210826   1.151   1.241   4.485
 2699SOL    HW310827   1.275   1.328   4.484
 2699SOL    MW410828   1.232   1.257   4.458
 2700SOL     OW10829   1.078   2.376   4.617
 2700SOL    HW210830   1.046   2.466   4.625
 2700SOL    HW310831   1.167   2.385   4.582
 2700SOL    MW410832   1.085   2.389   4.613
 2701SOL     OW10833   1.680   2.485   4.802
 2701SOL    HW210834   1.740   2.550   4.838
 2701SOL    HW310835   1.599   2.535   4.784
 2701SOL    MW410836   1.677   2.500   4.804
 2702SOL     OW10837   1.481   3.153   4.587
 2702SOL    HW210838   1.555   3.095   4.568
 2702SOL    HW310839   1.521   3.228   4.632
 2702SOL    MW410840   1.496   3.156   4.591
 2703SOL     OW10841   1.630   3.388   4.594
 2703SOL    HW210842   1.703   3.354   4.645
 2703SOL    HW310843   1.645   3.355   4.506
 2703SOL    MW410844   1.641   3.379   4.589
 2704SOL     OW10845   0.748   2.894   4.480
 2704SOL    HW210846   0.842   2.903   4.468
 2704SOL    HW310847   0.735   2.802   4.501
 2704SOL    MW410848   0.759   2.883   4.481
 2705SOL     OW10849   0.826   4.435   4.563
 2705SOL    HW210850   0.763   4.395   4.503
 2705SOL    HW310851   0.904   4.380   4.556
 2705SOL    MW410852   0.828   4.422   4.554
 2706SOL     OW10853   1.340   2.845   4.585
 2706SOL    HW210854   1.245   2.852   4.576
 2706SOL    HW310855   1.370   2.935   4.602
 2706SOL    MW410856   1.332   2.858   4.586
 2707SOL     OW10857   1.024   2.903   4.492
 2707SOL    HW210858   1.021   2.998   4.503
 2707SOL    HW310859   1.061   2.890   4.404
 2707SOL    MW410860   1.029   2.914   4.482
 2708SOL     OW10861   2.060   3.644   4.480
 2708SOL    HW210862   2.081   3.682   4.394
 2708SOL    HW310863   2.067   3.549   4.466
 2708SOL    MW410864   2.064   3.636   4.467
 2709SOL     OW10865   0.383   3.868   4.514
 2709SOL    HW210866   0.316   3.919   4.560
 2709SOL    HW310867   0.402   3.919   4.435
 2709SOL    MW410868   0.377   3.882   4.509
 2710SOL     OW10869   0.172   3.357   4.550
 2710SOL    HW210870   0.156   3.450   4.531
 2710SOL    HW310871   0.085   3.317   4.549
 2710SOL    MW410872   0.158   3.364   4.547
 2711SOL     OW10873   0.885   0.033   4.557
 2711SOL    HW210874   0.899   0.040   4.462
 2711SOL    HW310875   0.855  -0.057   4.570
 2711SOL    MW410876   0.883   0.022   4.546
 2712SOL     OW10877   0.881   4.169   4.282
 2712SOL    HW210878   0.931   4.201   4.356
 2712SOL    HW310879   0.803   4.224   4.279
 2712SOL    MW410880   0.877   4.180   4.291
 2713SOL     OW10881   2.365   4.025   4.513
 2713SOL    HW210882   2.329   4.010   4.426
 2713SOL    HW310883   2.349   3.942   4.559
 2713SOL    MW410884   2.358   4.012   4.508
 2714SOL     OW10885   1.790   4.526   4.496
 2714SOL    HW210886   1.839   4.444   4.503
 2714SOL    HW310887   1.698   4.500   4.498
 2714SOL    MW410888   1.785   4.512   4.497
 2715SOL     OW10889   1.518   4.371   4.524
 2715SOL    HW210890   1.523   4.284   4.562
 2715SOL    HW310891   1.517   4.357   4.430
 2715SOL    MW410892   1.519   4.358   4.517
 2716SOL     OW10893   0.756   0.480   4.459
 2716SOL    HW210894   0.712   0.554   4.501
 2716SOL    HW310895   0.721   0.479   4.370
 2716SOL    MW410896   0.746   0.489   4.452
 2717SOL     OW10897   1.790   0.160   4.467
 2717SOL    HW210898   1.791   0.064   4.475
 2717SOL    HW310899   1.717   0.188   4.523
 2717SOL    MW410900   1.780   0.151   4.475
 2718SOL     OW10901   1.035   0.413   4.439
 2718SOL    HW210902   0.939   0.413   4.435
 2718SOL    HW310903   1.057   0.340   4.497
 2718SOL    MW410904   1.025   0.404   4.446
 2719SOL     OW10905   1.721   1.684   4.489
 2719SOL    HW210906   1.676   1.600   4.486
 2719SOL    HW310907   1.744   1.702   4.397
 2719SOL    MW410908   1.718   1.675   4.476
 2720SOL     OW10909   0.662   0.702   4.606
 2720SOL    HW210910   0.608   0.776   4.581
 2720SOL    HW310911   0.628   0.675   4.691
 2720SOL    MW410912   0.650   0.708   4.614
 2721SOL     OW10913   1.574   0.232   4.619
 2721SOL    HW210914   1.558   0.324   4.596
 2721SOL    HW310915   1.600   0.234   4.711
 2721SOL    MW410916   1.575   0.244   4.628
 2722SOL     OW10917   1.542   1.164   4.466
 2722SOL    HW210918   1.484   1.089   4.451
 2722SOL    HW310919   1.615   1.128   4.516
 2722SOL    MW410920   1.544   1.149   4.471
 2723SOL     OW10921   1.335   1.490   4.553
 2723SOL    HW210922   1.422   1.487   4.593
 2723SOL    HW310923   1.350   1.524   4.465
 2723SOL    MW410924   1.348   1.494   4.547
 2724SOL     OW10925   1.471   2.618   4.650
 2724SOL    HW210926   1.422   2.700   4.642
 2724SOL    HW310927   1.409   2.550   4.621
 2724SOL    MW410928   1.456   2.620   4.645
 2725SOL     OW10929   2.380   2.608   4.259
 2725SOL    HW210930   2.334   2.557   4.193
 2725SOL    HW310931   2.315   2.671   4.290
 2725SOL    MW410932   2.365   2.610   4.254
 2726SOL     OW10933   0.818   2.365   4.471
 2726SOL    HW210934   0.900   2.373   4.519
 2726SOL    HW310935   0.841   2.390   4.381
 2726SOL    MW410936   0.832   2.369   4.465
 2727SOL     OW10937   1.250   4.073   4.553
 2727SOL    HW210938   1.329   4.105   4.596
 2727SOL    HW310939   1.232   3.989   4.594
 2727SOL    MW410940   1.258   4.066   4.564
 2728SOL     OW10941   1.369   2.454   4.253
 2728SOL    HW210942   1.364   2.538   4.206
 2728SOL    HW310943   1.452   2.416   4.226
 2728SOL    MW410944   1.379   2.460   4.243
 2729SOL     OW10945   1.337   2.393   4.526
 2729SOL    HW210946   1.355   2.404   4.433
 2729SOL    HW310947   1.399   2.326   4.555
 2729SOL    MW410948   1.348   2.386   4.518
 2730SOL     OW10949   1.224   3.347   4.437
 2730SOL    HW210950   1.293   3.312   4.494
 2730SOL    HW310951   1.256   3.330   4.348
 2730SOL    MW410952   1.237   3.340   4.433
 2731SOL     OW10953   0.793   3.315   4.646
 2731SOL    HW210954   0.775   3.291   4.737
 2731SOL    HW310955   0.820   3.407   4.650
 2731SOL    MW410956   0.794   3.324   4.659
 2732SOL     OW10957   0.551   3.618   4.516
 2732SOL    HW210958   0.486   3.549   4.527
 2732SOL    HW310959   0.499   3.699   4.511
 2732SOL    MW410960   0.535   3.620   4.517
 2733SOL     OW10961   2.323   3.324   4.558
 2733SOL    HW210962   2.380   3.249   4.545
 2733SOL    HW310963   2.249   3.290   4.608
 2733SOL    MW410964   2.321   3.310   4.563
 2734SOL     OW10965   2.011   3.365   4.445
 2734SOL    HW210966   2.072   3.318   4.388
 2734SOL    HW310967   1.998   3.307   4.519
 2734SOL    MW410968   2.017   3.351   4.447
 2735SOL     OW10969   2.494   3.112   4.527
 2735SOL    HW210970   2.442   3.036   4.500
 2735SOL    HW310971   2.514   3.097   4.619
 2735SOL    MW410972   2.490   3.100   4.535
 2736SOL     OW10973   1.249   3.626   4.453
 2736SOL    HW210974   1.156   3.645   4.439
 2736SOL    HW310975   1.255   3.530   4.447
 2736SOL    MW410976   1.238   3.616   4.450
 2737SOL     OW10977   1.809   4.042   4.490
 2737SOL    HW210978   1.806   4.035   4.395
 2737SOL    HW310979   1.812   3.952   4.521
 2737SOL    MW410980   1.809   4.029   4.482
 2738SOL     OW10981   1.943   0.389   4.434
 2738SOL    HW210982   1.919   0.297   4.422
 2738SOL    HW310983   2.034   0.386   4.464
 2738SOL    MW410984   1.952   0.377   4.437
 2739SOL     OW10985   1.098   0.198   4.648
 2739SOL    HW210986   1.024   0.139   4.632
 2739SOL    HW310987   1.075   0.242   4.730
 2739SOL    MW410988   1.085   0.196   4.657
 2740SOL     OW10989   1.317   0.090   4.518
 2740SOL    HW210990   1.399   0.113   4.562
 2740SOL    HW310991   1.251   0.147   4.558
 2740SOL    MW410992   1.319   0.101   4.529
 2741SOL     OW10993   2.247   0.064   4.440
 2741SOL    HW210994   2.283  -0.025   4.430
 2741SOL    HW310995   2.231   0.093   4.350
 2741SOL    MW410996   2.250   0.056   4.427
 2742SOL     OW10997   1.886   0.880   4.525
 2742SOL    HW210998   1.850   0.959   4.566
 2742SOL    HW310999   1.849   0.880   4.437
 2742SOL    MW411000   1.876   0.890   4.519
 2743SOL     OW11001   1.579   0.519   4.529
 2743SOL    HW211002   1.506   0.580   4.539
 2743SOL    HW311003   1.657   0.570   4.550
 2743SOL    MW411004   1.580   0.534   4.533
 2744SOL     OW11005   2.145   1.733   4.492
 2744SOL    HW211006   2.216   1.794   4.513
 2744SOL    HW311007   2.172   1.694   4.409
 2744SOL    MW411008   2.158   1.736   4.484
 2745SOL     OW11009   0.761   1.896   4.543
 2745SOL    HW211010   0.839   1.901   4.597
 2745SOL    HW311011   0.695   1.857   4.599
 2745SOL    MW411012   0.763   1.892   4.557
 2746SOL     OW11013   1.623   1.427   4.529
 2746SOL    HW211014   1.585   1.343   4.502
 2746SOL    HW311015   1.705   1.403   4.571
 2746SOL    MW411016   1.628   1.413   4.531
 2747SOL     OW11017   1.149   2.108   4.678
 2747SOL    HW211018   1.234   2.132   4.715
 2747SOL    HW311019   1.103   2.192   4.668
 2747SOL    MW411020   1.154   2.123   4.682
 2748SOL     OW11021   1.554   1.923   4.531
 2748SOL    HW211022   1.598   1.973   4.462
 2748SOL    HW311023   1.593   1.836   4.525
 2748SOL    MW411024   1.565   1.918   4.521
 2749SOL     OW11025   2.138   2.434   4.154
 2749SOL    HW211026   2.089   2.378   4.094
 2749SOL    HW311027   2.150   2.380   4.233
 2749SOL    MW411028   2.133   2.419   4.157
 2750SOL     OW11029   1.453   2.159   4.657
 2750SOL    HW211030   1.487   2.087   4.605
 2750SOL    HW311031   1.530   2.205   4.689
 2750SOL    MW411032   1.467   2.156   4.654
 2751SOL     OW11033   3.078   3.196   4.690
 2751SOL    HW211034   3.115   3.238   4.613
 2751SOL    HW311035   3.070   3.103   4.665
 2751SOL    MW411036   3.082   3.189   4.676
 2752SOL     OW11037   1.829   3.209   4.686
 2752SOL    HW211038   1.787   3.126   4.664
 2752SOL    HW311039   1.921   3.186   4.700
 2752SOL    MW411040   1.836   3.195   4.685
 2753SOL     OW11041   1.849   3.780   4.618
 2753SOL    HW211042   1.850   3.738   4.705
 2753SOL    HW311043   1.920   3.738   4.571
 2753SOL    MW411044   1.858   3.769   4.623
 2754SOL     OW11045   2.638   2.795   4.832
 2754SOL    HW211046   2.579   2.739   4.781
 2754SOL    HW311047   2.721   2.791   4.785
 2754SOL    MW411048   2.641   2.787   4.819
 2755SOL     OW11049   2.331   2.710   4.904
 2755SOL    HW211050   2.410   2.724   4.956
 2755SOL    HW311051   2.309   2.797   4.870
 2755SOL    MW411052   2.338   2.723   4.906
 2756SOL     OW11053   2.769   3.940   4.496
 2756SOL    HW211054   2.708   3.933   4.423
 2756SOL    HW311055   2.732   4.010   4.551
 2756SOL    MW411056   2.756   3.949   4.493
 2757SOL     OW11057   2.598   4.125   4.638
 2757SOL    HW211058   2.558   4.114   4.724
 2757SOL    HW311059   2.530   4.097   4.576
 2757SOL    MW411060   2.584   4.120   4.641
 2758SOL     OW11061   2.485   3.551   4.579
 2758SOL    HW211062   2.426   3.476   4.577
 2758SOL    HW311063   2.475   3.592   4.493
 2758SOL    MW411064   2.476   3.547   4.568
 2759SOL     OW11065   2.304   3.765   4.601
 2759SOL    HW211066   2.349   3.684   4.625
 2759SOL    HW311067   2.219   3.736   4.567
 2759SOL    MW411068   2.298   3.750   4.600
 2760SOL     OW11069   1.943   4.289   4.474
 2760SOL    HW211070   1.902   4.202   4.471
 2760SOL    HW311071   2.035   4.271   4.497
 2760SOL    MW411072   1.950   4.275   4.477
 2761SOL     OW11073   1.403   3.813   4.578
 2761SOL    HW211074   1.486   3.766   4.573
 2761SOL    HW311075   1.339   3.752   4.542
 2761SOL    MW411076   1.405   3.799   4.573
 2762SOL     OW11077   2.208   0.369   4.481
 2762SOL    HW211078   2.234   0.285   4.517
 2762SOL    HW311079   2.220   0.431   4.554
 2762SOL    MW411080   2.213   0.366   4.496
 2763SOL     OW11081   2.023   0.586   4.836
 2763SOL    HW211082   1.955   0.597   4.770
 2763SOL    HW311083   1.979   0.601   4.919
 2763SOL    MW411084   2.008   0.589   4.838
 2764SOL     OW11085   1.925   1.672   4.657
 2764SOL    HW211086   2.000   1.677   4.598
 2764SOL    HW311087   1.848   1.675   4.600
 2764SOL    MW411088   1.925   1.673   4.642
 2765SOL     OW11089   2.381   0.786   4.617
 2765SOL    HW211090   2.305   0.817   4.568
 2765SOL    HW311091   2.429   0.732   4.554
 2765SOL    MW411092   2.378   0.783   4.602
 2766SOL     OW11093   2.838   0.772   4.333
 2766SOL    HW211094   2.870   0.772   4.423
 2766SOL    HW311095   2.915   0.796   4.281
 2766SOL    MW411096   2.853   0.775   4.338
 2767SOL     OW11097   3.126   1.268   4.287
 2767SOL    HW211098   3.117   1.202   4.356
 2767SOL    HW311099   3.197   1.325   4.318
 2767SOL    MW411100   3.135   1.267   4.300
 2768SOL     OW11101   2.166   0.915   4.484
 2768SOL    HW211102   2.156   1.004   4.518
 2768SOL    HW311103   2.083   0.873   4.504
 2768SOL    MW411104   2.154   0.921   4.491
 2769SOL     OW11105   2.558   1.448   4.650
 2769SOL    HW211106   2.526   1.448   4.740
 2769SOL    HW311107   2.635   1.390   4.652
 2769SOL    MW411108   2.564   1.440   4.662
 2770SOL     OW11109   2.561   1.700   4.510
 2770SOL    HW211110   2.578   1.684   4.417
 2770SOL    HW311111   2.562   1.613   4.550
 2770SOL    MW411112   2.563   1.687   4.503
 2771SOL     OW11113   2.376   1.915   4.496
 2771SOL    HW211114   2.439   1.845   4.512
 2771SOL    HW311115   2.406   1.957   4.415
 2771SOL    MW411116   2.388   1.912   4.487
 2772SOL     OW11117   2.152   2.165   4.852
 2772SOL    HW211118   2.066   2.151   4.812
 2772SOL    HW311119   2.157   2.260   4.865
 2772SOL    MW411120   2.141   2.176   4.848
 2773SOL     OW11121   2.348   2.126   4.662
 2773SOL    HW211122   2.352   2.038   4.625
 2773SOL    HW311123   2.278   2.121   4.728
 2773SOL    MW411124   2.339   2.114   4.666
 2774SOL     OW11125   2.808   2.579   4.357
 2774SOL    HW211126   2.726   2.545   4.393
 2774SOL    HW311127   2.799   2.674   4.364
 2774SOL    MW411128   2.796   2.587   4.362
 2775SOL     OW11129   1.625   2.699   4.437
 2775SOL    HW211130   1.670   2.619   4.409
 2775SOL    HW311131   1.555   2.669   4.494
 2775SOL    MW411132   1.622   2.685   4.441
 2776SOL     OW11133   2.307   2.968   4.788
 2776SOL    HW211134   2.381   3.029   4.794
 2776SOL    HW311135   2.302   2.946   4.695
 2776SOL    MW411136   2.316   2.973   4.776
 2777SOL     OW11137   2.750   3.467   4.555
 2777SOL    HW211138   2.769   3.418   4.635
 2777SOL    HW311139   2.663   3.504   4.569
 2777SOL    MW411140   2.741   3.465   4.567
 2778SOL     OW11141   2.570   3.091   4.793
 2778SOL    HW211142   2.653   3.136   4.775
 2778SOL    HW311143   2.596   3.003   4.820
 2778SOL    MW411144   2.584   3.085   4.794
 2779SOL     OW11145   1.541   4.096   4.586
 2779SOL    HW211146   1.495   4.014   4.567
 2779SOL    HW311147   1.632   4.079   4.565
 2779SOL    MW411148   1.547   4.083   4.581
 2780SOL     OW11149   2.995   4.111   4.456
 2780SOL    HW211150   2.931   4.041   4.461
 2780SOL    HW311151   3.068   4.074   4.406
 2780SOL    MW411152   2.996   4.097   4.450
 2781SOL     OW11153   2.115   3.134   4.667
 2781SOL    HW211154   2.132   3.092   4.583
 2781SOL    HW311155   2.157   3.077   4.732
 2781SOL    MW411156   2.123   3.121   4.665
 2782SOL     OW11157   3.286   3.926   4.563
 2782SOL    HW211158   3.248   3.979   4.633
 2782SOL    HW311159   3.275   3.835   4.592
 2782SOL    MW411160   3.279   3.921   4.576
 2783SOL     OW11161   3.171   4.049   4.766
 2783SOL    HW211162   3.178   4.135   4.723
 2783SOL    HW311163   3.084   4.049   4.806
 2783SOL    MW411164   3.161   4.061   4.766
 2784SOL     OW11165   2.216   4.248   4.536
 2784SOL    HW211166   2.262   4.164   4.528
 2784SOL    HW311167   2.210   4.263   4.631
 2784SOL    MW411168   2.222   4.239   4.548
 2785SOL     OW11169   2.380   4.476   4.462
 2785SOL    HW211170   2.318   4.407   4.488
 2785SOL    HW311171   2.404   4.454   4.373
 2785SOL    MW411172   2.375   4.464   4.454
 2786SOL     OW11173   2.853   0.504   4.254
 2786SOL    HW211174   2.830   0.595   4.272
 2786SOL    HW311175   2.920   0.509   4.185
 2786SOL    MW411176   2.859   0.517   4.247
 2787SOL     OW11177   2.975   4.533   4.680
 2787SOL    HW211178   3.017   4.451   4.705
 2787SOL    HW311179   2.951   4.520   4.588
 2787SOL    MW411180   2.977   4.520   4.671
 2788SOL     OW11181   2.620   4.406   4.590
 2788SOL    HW211182   2.552   4.422   4.525
 2788SOL    HW311183   2.610   4.314   4.613
 2788SOL    MW411184   2.610   4.396   4.584
 2789SOL     OW11185   2.807   1.015   4.572
 2789SOL    HW211186   2.821   0.922   4.587
 2789SOL    HW311187   2.714   1.021   4.548
 2789SOL    MW411188   2.796   1.004   4.571
 2790SOL     OW11189   2.798   0.332   4.735
 2790SOL    HW211190   2.820   0.379   4.655
 2790SOL    HW311191   2.702   0.327   4.735
 2790SOL    MW411192   2.788   0.337   4.725
 2791SOL     OW11193   1.838   0.607   4.617
 2791SOL    HW211194   1.877   0.542   4.558
 2791SOL    HW311195   1.850   0.691   4.573
 2791SOL    MW411196   1.845   0.609   4.603
 2792SOL     OW11197   2.529   1.010   4.534
 2792SOL    HW211198   2.485   0.936   4.576
 2792SOL    HW311199   2.530   0.988   4.441
 2792SOL    MW411200   2.524   0.997   4.528
 2793SOL     OW11201   3.092   1.307   4.696
 2793SOL    HW211202   2.997   1.317   4.708
 2793SOL    HW311203   3.101   1.231   4.638
 2793SOL    MW411204   3.080   1.298   4.690
 2794SOL     OW11205   3.083   1.706   4.533
 2794SOL    HW211206   2.994   1.703   4.568
 2794SOL    HW311207   3.128   1.635   4.578
 2794SOL    MW411208   3.077   1.696   4.544
 2795SOL     OW11209   2.824   1.770   4.591
 2795SOL    HW211210   2.823   1.863   4.613
 2795SOL    HW311211   2.732   1.748   4.575
 2795SOL    MW411212   2.812   1.779   4.592
 2796SOL     OW11213   2.591   2.215   4.542
 2796SOL    HW211214   2.565   2.307   4.534
 2796SOL    HW311215   2.518   2.173   4.587
 2796SOL    MW411216   2.578   2.221   4.547
 2797SOL     OW11217   2.821   2.047   4.575
 2797SOL    HW211218   2.750   2.111   4.565
 2797SOL    HW311219   2.837   2.015   4.487
 2797SOL    MW411220   2.814   2.051   4.562
 2798SOL     OW11221   2.959   2.274   4.515
 2798SOL    HW211222   2.920   2.190   4.539
 2798SOL    HW311223   2.924   2.292   4.428
 2798SOL    MW411224   2.949   2.265   4.507
 2799SOL     OW11225   2.473   2.699   4.632
 2799SOL    HW211226   2.404   2.654   4.681
 2799SOL    HW311227   2.427   2.767   4.584
 2799SOL    MW411228   2.457   2.702   4.632
 2800SOL     OW11229   3.777   3.277   4.781
 2800SOL    HW211230   3.824   3.333   4.719
 2800SOL    HW311231   3.766   3.194   4.735
 2800SOL    MW411232   3.781   3.273   4.766
 2801SOL     OW11233   2.790   2.846   4.385
 2801SOL    HW211234   2.832   2.867   4.302
 2801SOL    HW311235   2.701   2.883   4.376
 2801SOL    MW411236   2.784   2.854   4.373
 2802SOL     OW11237   2.804   3.284   4.730
 2802SOL    HW211238   2.890   3.253   4.701
 2802SOL    HW311239   2.817   3.303   4.824
 2802SOL    MW411240   2.817   3.282   4.739
 2803SOL     OW11241   3.088   2.929   4.592
 2803SOL    HW211242   3.172   2.884   4.587
 2803SOL    HW311243   3.031   2.870   4.640
 2803SOL    MW411244   3.091   2.915   4.598
 2804SOL     OW11245   2.482   0.385   4.662
 2804SOL    HW211246   2.411   0.431   4.706
 2804SOL    HW311247   2.447   0.297   4.647
 2804SOL    MW411248   2.468   0.379   4.666
 2805SOL     OW11249   3.468   4.132   4.797
 2805SOL    HW211250   3.384   4.090   4.777
 2805SOL    HW311251   3.482   4.192   4.723
 2805SOL    MW411252   3.458   4.134   4.784
 2806SOL     OW11253   3.789   3.709   4.513
 2806SOL    HW211254   3.775   3.718   4.419
 2806SOL    HW311255   3.821   3.619   4.525
 2806SOL    MW411256   3.792   3.698   4.502
 2807SOL     OW11257   2.900   3.676   4.454
 2807SOL    HW211258   2.854   3.609   4.506
 2807SOL    HW311259   2.870   3.759   4.491
 2807SOL    MW411260   2.890   3.678   4.466
 2808SOL     OW11261   3.193   4.287   4.642
 2808SOL    HW211262   3.150   4.256   4.563
 2808SOL    HW311263   3.249   4.359   4.612
 2808SOL    MW411264   3.195   4.293   4.628
 2809SOL     OW11265   2.781   0.528   4.522
 2809SOL    HW211266   2.686   0.534   4.521
 2809SOL    HW311267   2.805   0.507   4.432
 2809SOL    MW411268   2.772   0.526   4.510
 2810SOL     OW11269   2.913   0.758   4.609
 2810SOL    HW211270   2.990   0.731   4.659
 2810SOL    HW311271   2.861   0.678   4.601
 2810SOL    MW411272   2.916   0.744   4.614
 2811SOL     OW11273   2.257   0.553   4.698
 2811SOL    HW211274   2.291   0.639   4.672
 2811SOL    HW311275   2.186   0.573   4.759
 2811SOL    MW411276   2.252   0.567   4.703
 2812SOL     OW11277   2.417   1.244   4.481
 2812SOL    HW211278   2.459   1.168   4.521
 2812SOL    HW311279   2.470   1.319   4.508
 2812SOL    MW411280   2.429   1.244   4.490
 2813SOL     OW11281   2.843   4.521   4.446
 2813SOL    HW211282   2.766   4.482   4.486
 2813SOL    HW311283   2.821   4.613   4.435
 2813SOL    MW411284   2.830   4.528   4.450
 2814SOL     OW11285   2.733   0.126   4.493
 2814SOL    HW211286   2.694   0.107   4.407
 2814SOL    HW311287   2.658   0.140   4.550
 2814SOL    MW411288   2.718   0.125   4.489
 2815SOL     OW11289   3.246   1.535   4.711
 2815SOL    HW211290   3.247   1.569   4.800
 2815SOL    HW311291   3.197   1.453   4.717
 2815SOL    MW411292   3.240   1.528   4.723
 2816SOL     OW11293   2.804   1.307   4.629
 2816SOL    HW211294   2.798   1.212   4.634
 2816SOL    HW311295   2.823   1.326   4.537
 2816SOL    MW411296   2.806   1.297   4.617
 2817SOL     OW11297   4.046   0.970   4.479
 2817SOL    HW211298   4.053   0.944   4.387
 2817SOL    HW311299   4.104   0.911   4.526
 2817SOL    MW411300   4.054   0.959   4.473
 2818SOL     OW11301   3.492   1.522   4.574
 2818SOL    HW211302   3.526   1.611   4.575
 2818SOL    HW311303   3.409   1.527   4.622
 2818SOL    MW411304   3.485   1.534   4.581
 2819SOL     OW11305   3.319   1.873   4.568
 2819SOL    HW211306   3.304   1.968   4.564
 2819SOL    HW311307   3.235   1.834   4.546
 2819SOL    MW411308   3.306   1.881   4.564
 2820SOL     OW11309   3.222   2.155   4.511
 2820SOL    HW211310   3.150   2.217   4.519
 2820SOL    HW311311   3.216   2.121   4.422
 2820SOL    MW411312   3.212   2.159   4.500
 2821SOL     OW11313   3.572   1.782   4.519
 2821SOL    HW211314   3.492   1.829   4.546
 2821SOL    HW311315   3.555   1.756   4.429
 2821SOL    MW411316   3.559   1.785   4.511
 2822SOL     OW11317   2.869   2.774   4.666
 2822SOL    HW211318   2.855   2.803   4.576
 2822SOL    HW311319   2.894   2.682   4.657
 2822SOL    MW411320   2.870   2.766   4.653
 2823SOL     OW11321   3.232   2.562   4.542
 2823SOL    HW211322   3.145   2.575   4.580
 2823SOL    HW311323   3.216   2.536   4.452
 2823SOL    MW411324   3.218   2.560   4.535
 2824SOL     OW11325   2.962   2.531   4.589
 2824SOL    HW211326   2.911   2.538   4.508
 2824SOL    HW311327   2.968   2.437   4.606
 2824SOL    MW411328   2.956   2.520   4.580
 2825SOL     OW11329   3.770   3.044   4.591
 2825SOL    HW211330   3.745   3.096   4.514
 2825SOL    HW311331   3.821   2.971   4.556
 2825SOL    MW411332   3.774   3.041   4.576
 2826SOL     OW11333   3.490   3.295   4.572
 2826SOL    HW211334   3.510   3.351   4.647
 2826SOL    HW311335   3.448   3.218   4.610
 2826SOL    MW411336   3.487   3.293   4.587
 2827SOL     OW11337   3.479   3.027   4.658
 2827SOL    HW211338   3.437   2.948   4.623
 2827SOL    HW311339   3.569   3.022   4.625
 2827SOL    MW411340   3.486   3.016   4.649
 2828SOL     OW11341   3.927   2.832   4.466
 2828SOL    HW211342   3.885   2.760   4.513
 2828SOL    HW311343   4.020   2.825   4.490
 2828SOL    MW411344   3.934   2.822   4.475
 2829SOL     OW11345   3.358   3.190   4.850
 2829SOL    HW211346   3.403   3.126   4.795
 2829SOL    HW311347   3.286   3.222   4.796
 2829SOL    MW411348   3.354   3.186   4.836
 2830SOL     OW11349   3.526   4.283   4.558
 2830SOL    HW211350   3.615   4.318   4.550
 2830SOL    HW311351   3.531   4.195   4.519
 2830SOL    MW411352   3.538   4.276   4.552
 2831SOL     OW11353   2.991   0.247   4.481
 2831SOL    HW211354   2.898   0.225   4.478
 2831SOL    HW311355   3.026   0.194   4.553
 2831SOL    MW411356   2.984   0.237   4.490
 2832SOL     OW11357   3.056   0.142   4.740
 2832SOL    HW211358   3.036   0.049   4.736
 2832SOL    HW311359   2.974   0.183   4.768
 2832SOL    MW411360   3.042   0.135   4.743
 2833SOL     OW11361   3.355   4.496   4.528
 2833SOL    HW211362   3.423   4.430   4.545
 2833SOL    HW311363   3.391   4.577   4.563
 2833SOL    MW411364   3.369   4.498   4.535
 2834SOL     OW11365   3.536   3.998   4.462
 2834SOL    HW211366   3.606   3.980   4.525
 2834SOL    HW311367   3.456   3.971   4.507
 2834SOL    MW411368   3.535   3.992   4.476
 2835SOL     OW11369   3.511   0.055   4.598
 2835SOL    HW211370   3.452   0.123   4.630
 2835SOL    HW311371   3.519   0.072   4.504
 2835SOL    MW411372   3.504   0.066   4.590
 2836SOL     OW11373   3.269   0.920   4.607
 2836SOL    HW211374   3.349   0.958   4.643
 2836SOL    HW311375   3.268   0.831   4.641
 2836SOL    MW411376   3.280   0.913   4.616
 2837SOL     OW11377   2.460   0.097   4.599
 2837SOL    HW211378   2.387   0.092   4.537
 2837SOL    HW311379   2.462   0.010   4.640
 2837SOL    MW411380   2.451   0.085   4.596
 2838SOL     OW11381   4.226   1.650   4.381
 2838SOL    HW211382   4.277   1.585   4.430
 2838SOL    HW311383   4.242   1.629   4.289
 2838SOL    MW411384   4.235   1.639   4.375
 2839SOL     OW11385   3.793   0.872   4.549
 2839SOL    HW211386   3.751   0.826   4.477
 2839SOL    HW311387   3.876   0.903   4.512
 2839SOL    MW411388   3.799   0.870   4.535
 2840SOL     OW11389   4.475   0.874   4.532
 2840SOL    HW211390   4.463   0.851   4.440
 2840SOL    HW311391   4.554   0.828   4.559
 2840SOL    MW411392   4.484   0.865   4.524
 2841SOL     OW11393   4.239   0.515   4.470
 2841SOL    HW211394   4.258   0.509   4.377
 2841SOL    HW311395   4.152   0.476   4.480
 2841SOL    MW411396   4.230   0.509   4.459
 2842SOL     OW11397   3.540   1.717   4.242
 2842SOL    HW211398   3.617   1.682   4.197
 2842SOL    HW311399   3.467   1.662   4.212
 2842SOL    MW411400   3.540   1.705   4.232
 2843SOL     OW11401   3.960   1.719   4.323
 2843SOL    HW211402   4.046   1.704   4.363
 2843SOL    HW311403   3.917   1.781   4.382
 2843SOL    MW411404   3.966   1.725   4.336
 2844SOL     OW11405   3.714   2.359   4.498
 2844SOL    HW211406   3.621   2.339   4.485
 2844SOL    HW311407   3.756   2.274   4.505
 2844SOL    MW411408   3.707   2.345   4.497
 2845SOL     OW11409   3.832   1.875   4.519
 2845SOL    HW211410   3.742   1.844   4.514
 2845SOL    HW311411   3.875   1.815   4.580
 2845SOL    MW411412   3.826   1.863   4.527
 2846SOL     OW11413   0.276   1.896   4.685
 2846SOL    HW211414   0.303   1.985   4.662
 2846SOL    HW311415   0.182   1.895   4.672
 2846SOL    MW411416   0.267   1.908   4.680
 2847SOL     OW11417   3.875   2.118   4.430
 2847SOL    HW211418   3.968   2.136   4.446
 2847SOL    HW311419   3.861   2.031   4.468
 2847SOL    MW411420   3.886   2.109   4.437
 2848SOL     OW11421   3.826   2.593   4.617
 2848SOL    HW211422   3.770   2.521   4.586
 2848SOL    HW311423   3.807   2.600   4.710
 2848SOL    MW411424   3.816   2.584   4.625
 2849SOL     OW11425   4.106   2.523   4.502
 2849SOL    HW211426   4.028   2.535   4.556
 2849SOL    HW311427   4.155   2.605   4.512
 2849SOL    MW411428   4.102   2.535   4.511
 2850SOL     OW11429   4.416   2.943   4.582
 2850SOL    HW211430   4.431   3.038   4.584
 2850SOL    HW311431   4.492   2.907   4.536
 2850SOL    MW411432   4.428   2.951   4.577
 2851SOL     OW11433   3.228   3.363   4.510
 2851SOL    HW211434   3.224   3.325   4.423
 2851SOL    HW311435   3.321   3.368   4.530
 2851SOL    MW411436   3.240   3.358   4.501
 2852SOL     OW11437   3.546   3.428   4.806
 2852SOL    HW211438   3.492   3.383   4.871
 2852SOL    HW311439   3.634   3.393   4.819
 2852SOL    MW411440   3.551   3.418   4.816
 2853SOL     OW11441   3.177   3.645   4.470
 2853SOL    HW211442   3.083   3.654   4.456
 2853SOL    HW311443   3.187   3.556   4.504
 2853SOL    MW411444   3.166   3.635   4.473
 2854SOL     OW11445   4.136   3.343   4.466
 2854SOL    HW211446   4.164   3.425   4.427
 2854SOL    HW311447   4.104   3.291   4.392
 2854SOL    MW411448   4.135   3.347   4.451
 2855SOL     OW11449   0.328   3.083   4.684
 2855SOL    HW211450   0.271   3.156   4.661
 2855SOL    HW311451   0.413   3.106   4.645
 2855SOL    MW411452   0.332   3.096   4.676
 2856SOL     OW11453   4.234   3.804   4.403
 2856SOL    HW211454   4.150   3.823   4.443
 2856SOL    HW311455   4.233   3.852   4.320
 2856SOL    MW411456   4.223   3.813   4.397
 2857SOL     OW11457   3.789   4.379   4.558
 2857SOL    HW211458   3.774   4.395   4.465
 2857SOL    HW311459   3.788   4.466   4.598
 2857SOL    MW411460   3.787   4.393   4.551
 2858SOL     OW11461   3.316   0.223   4.669
 2858SOL    HW211462   3.236   0.175   4.691
 2858SOL    HW311463   3.286   0.303   4.626
 2858SOL    MW411464   3.301   0.227   4.666
 2859SOL     OW11465   3.601   1.090   4.601
 2859SOL    HW211466   3.650   1.172   4.607
 2859SOL    HW311467   3.669   1.022   4.599
 2859SOL    MW411468   3.617   1.092   4.601
 2860SOL     OW11469   3.144   0.664   4.710
 2860SOL    HW211470   3.147   0.585   4.657
 2860SOL    HW311471   3.124   0.633   4.799
 2860SOL    MW411472   3.141   0.650   4.715
 2861SOL     OW11473   4.429   0.360   4.591
 2861SOL    HW211474   4.513   0.398   4.563
 2861SOL    HW311475   4.364   0.428   4.569
 2861SOL    MW411476   4.431   0.374   4.584
 2862SOL     OW11477   0.175   0.496   4.522
 2862SOL    HW211478   0.224   0.424   4.563
 2862SOL    HW311479   0.187   0.483   4.428
 2862SOL    MW411480   0.183   0.485   4.515
 2863SOL     OW11481   3.999   0.387   4.505
 2863SOL    HW211482   3.973   0.451   4.571
 2863SOL    HW311483   3.991   0.302   4.550
 2863SOL    MW411484   3.995   0.384   4.520
 2864SOL     OW11485   3.721   1.357   4.545
 2864SOL    HW211486   3.648   1.409   4.580
 2864SOL    HW311487   3.799   1.404   4.573
 2864SOL    MW411488   3.721   1.370   4.553
 2865SOL     OW11489   0.052   1.157   4.514
 2865SOL    HW211490   0.148   1.150   4.517
 2865SOL    HW311491   0.021   1.068   4.530
 2865SOL    MW411492   0.061   1.144   4.516
 2866SOL     OW11493   4.429   1.427   4.476
 2866SOL    HW211494   4.504   1.488   4.470
 2866SOL    HW311495   4.469   1.343   4.499
 2866SOL    MW411496   4.444   1.424   4.478
 2867SOL     OW11497   3.995   1.478   4.528
 2867SOL    HW211498   3.968   1.497   4.439
 2867SOL    HW311499   4.033   1.390   4.523
 2867SOL    MW411500   3.997   1.469   4.516
 2868SOL     OW11501   3.338   2.819   4.512
 2868SOL    HW211502   3.300   2.732   4.522
 2868SOL    HW311503   3.351   2.829   4.417
 2868SOL    MW411504   3.335   2.809   4.501
 2869SOL     OW11505   4.233   2.046   4.206
 2869SOL    HW211506   4.153   1.997   4.185
 2869SOL    HW311507   4.214   2.087   4.290
 2869SOL    MW411508   4.220   2.045   4.215
 2870SOL     OW11509   0.116   2.154   4.490
 2870SOL    HW211510   0.190   2.183   4.544
 2870SOL    HW311511   0.043   2.208   4.519
 2870SOL    MW411512   0.116   2.165   4.501
 2871SOL     OW11513   4.163   2.152   4.450
 2871SOL    HW211514   4.199   2.072   4.488
 2871SOL    HW311515   4.234   2.216   4.460
 2871SOL    MW411516   4.177   2.150   4.456
 2872SOL     OW11517   3.423   2.367   4.469
 2872SOL    HW211518   3.379   2.439   4.515
 2872SOL    HW311519   3.365   2.292   4.480
 2872SOL    MW411520   3.410   2.366   4.477
 2873SOL     OW11521   0.448   2.657   4.523
 2873SOL    HW211522   0.404   2.577   4.494
 2873SOL    HW311523   0.392   2.692   4.591
 2873SOL    MW411524   0.435   2.651   4.528
 2874SOL     OW11525   4.215   2.767   4.494
 2874SOL    HW211526   4.276   2.802   4.559
 2874SOL    HW311527   4.249   2.798   4.410
 2874SOL    MW411528   4.228   2.775   4.492
 2875SOL     OW11529   0.129   2.754   4.469
 2875SOL    HW211530   0.168   2.762   4.382
 2875SOL    HW311531   0.200   2.774   4.530
 2875SOL    MW411532   0.143   2.758   4.466
 2876SOL     OW11533   0.199   3.638   4.474
 2876SOL    HW211534   0.268   3.702   4.489
 2876SOL    HW311535   0.210   3.611   4.382
 2876SOL    MW411536   0.209   3.643   4.464
 2877SOL     OW11537   3.773   4.638   4.657
 2877SOL    HW211538   3.774   4.656   4.751
 2877SOL    HW311539   3.700   4.689   4.623
 2877SOL    MW411540   3.764   4.647   4.665
 2878SOL     OW11541   4.142   4.316   4.627
 2878SOL    HW211542   4.130   4.365   4.709
 2878SOL    HW311543   4.075   4.248   4.630
 2878SOL    MW411544   4.131   4.314   4.638
 2879SOL     OW11545   3.871   3.447   4.548
 2879SOL    HW211546   3.816   3.392   4.492
 2879SOL    HW311547   3.958   3.407   4.541
 2879SOL    MW411548   3.875   3.434   4.539
 2880SOL     OW11549   2.508   0.584   4.474
 2880SOL    HW211550   2.494   0.518   4.541
 2880SOL    HW311551   2.476   0.544   4.393
 2880SOL    MW411552   2.502   0.570   4.472
 2881SOL     OW11553   4.203   4.431   4.279
 2881SOL    HW211554   4.287   4.390   4.261
 2881SOL    HW311555   4.215   4.476   4.363
 2881SOL    MW411556   4.215   4.432   4.288
 2882NA      NA11557   2.684   4.225   0.695
 2883NA      NA11558   0.747   2.034   0.350
   4.49070   4.66690  10.00000
