Gromacs Runs On Most of All Computer Systems in water t= 240.00000 step= 240000
11558
    1RG35     P    1   2.127   2.840   4.507
    1RG35   O1P    2   2.136   2.754   4.382
    1RG35   O2P    3   2.027   2.950   4.502
    1RG35   O5'    4   2.065   2.741   4.605
    1RG35   C5'    5   2.002   2.783   4.727
    1RG35  H5'1    6   1.901   2.809   4.697
    1RG35  H5'2    7   2.051   2.871   4.769
    1RG35   C4'    8   2.000   2.668   4.826
    1RG35   H4'    9   1.938   2.694   4.911
    1RG35   O4'   10   1.949   2.551   4.760
    1RG35   C1'   11   2.044   2.442   4.775
    1RG35   H1'   12   2.019   2.376   4.858
    1RG35    N9   13   2.041   2.360   4.648
    1RG35    C8   14   2.072   2.398   4.521
    1RG35    H8   15   2.110   2.497   4.501
    1RG35    N7   16   2.052   2.308   4.429
    1RG35    C5   17   2.016   2.196   4.506
    1RG35    C6   18   1.972   2.066   4.457
    1RG35    O6   19   1.959   2.021   4.342
    1RG35    N1   20   1.940   1.986   4.563
    1RG35    H1   21   1.895   1.899   4.538
    1RG35    C2   22   1.947   2.016   4.696
    1RG35    N2   23   1.932   1.920   4.780
    1RG35   H21   24   1.940   1.825   4.746
    1RG35   H22   25   1.955   1.937   4.877
    1RG35    N3   26   1.973   2.140   4.740
    1RG35    C4   27   2.008   2.230   4.639
    1RG35   C3'   28   2.139   2.634   4.871
    1RG35   H3'   29   2.200   2.723   4.863
    1RG35   C2'   30   2.180   2.509   4.790
    1RG35  H2'1   31   2.226   2.540   4.696
    1RG35   O2'   32   2.269   2.424   4.860
    1RG35  HO'2   33   2.353   2.438   4.815
    1RG35   O3'   34   2.139   2.592   5.008
    1RG35   H3T   35   2.197   2.515   5.011
    1RG35   O3P   36   2.259   2.883   4.559
    2SOL     OW   37   0.384   0.131   0.461
    2SOL    HW2   38   0.392   0.037   0.446
    2SOL    HW3   39   0.474   0.164   0.455
    2SOL    MW4   40   0.397   0.123   0.458
    3SOL     OW   41   3.972   0.090   0.443
    3SOL    HW2   42   4.066   0.098   0.426
    3SOL    HW3   43   3.952  -0.001   0.423
    3SOL    MW4   44   3.982   0.079   0.438
    4SOL     OW   45   3.781   0.491   0.500
    4SOL    HW2   46   3.708   0.548   0.477
    4SOL    HW3   47   3.786   0.496   0.596
    4SOL    MW4   48   3.772   0.499   0.510
    5SOL     OW   49   0.067   1.464   0.557
    5SOL    HW2   50  -0.010   1.414   0.530
    5SOL    HW3   51   0.118   1.402   0.610
    5SOL    MW4   52   0.064   1.449   0.560
    6SOL     OW   53   1.413   0.787   0.515
    6SOL    HW2   54   1.401   0.822   0.603
    6SOL    HW3   55   1.353   0.839   0.461
    6SOL    MW4   56   1.403   0.798   0.520
    7SOL     OW   57   0.163   0.536   0.474
    7SOL    HW2   58   0.162   0.526   0.569
    7SOL    HW3   59   0.177   0.447   0.441
    7SOL    MW4   60   0.165   0.523   0.482
    8SOL     OW   61   0.453   0.925   0.498
    8SOL    HW2   62   0.451   0.923   0.593
    8SOL    HW3   63   0.417   0.840   0.472
    8SOL    MW4   64   0.448   0.914   0.507
    9SOL     OW   65   0.928   0.827   0.478
    9SOL    HW2   66   0.907   0.838   0.570
    9SOL    HW3   67   0.857   0.872   0.431
    9SOL    MW4   68   0.916   0.834   0.484
   10SOL     OW   69   0.700   0.984   0.372
   10SOL    HW2   70   0.672   1.007   0.283
   10SOL    HW3   71   0.618   0.969   0.420
   10SOL    MW4   72   0.685   0.985   0.366
   11SOL     OW   73   0.514   1.885   0.322
   11SOL    HW2   74   0.510   1.793   0.345
   11SOL    HW3   75   0.436   1.924   0.362
   11SOL    MW4   76   0.503   1.878   0.330
   12SOL     OW   77   4.035   2.012   0.366
   12SOL    HW2   78   4.057   1.942   0.305
   12SOL    HW3   79   3.961   1.979   0.416
   12SOL    MW4   80   4.028   1.999   0.364
   13SOL     OW   81   0.157   1.731   0.410
   13SOL    HW2   82   0.068   1.766   0.409
   13SOL    HW3   83   0.151   1.653   0.465
   13SOL    MW4   84   0.144   1.725   0.417
   14SOL     OW   85   0.340   2.414   0.285
   14SOL    HW2   86   0.352   2.472   0.210
   14SOL    HW3   87   0.259   2.445   0.327
   14SOL    MW4   88   0.331   2.426   0.281
   15SOL     OW   89   0.110   2.731   0.485
   15SOL    HW2   90   0.191   2.728   0.434
   15SOL    HW3   91   0.047   2.774   0.427
   15SOL    MW4   92   0.113   2.737   0.471
   16SOL     OW   93   4.113   3.234   0.433
   16SOL    HW2   94   4.091   3.247   0.526
   16SOL    HW3   95   4.208   3.219   0.433
   16SOL    MW4   96   4.123   3.234   0.446
   17SOL     OW   97   4.396   2.897   0.346
   17SOL    HW2   98   4.345   2.875   0.268
   17SOL    HW3   99   4.343   2.864   0.419
   17SOL    MW4  100   4.382   2.890   0.345
   18SOL     OW  101   0.352   3.422   0.418
   18SOL    HW2  102   0.395   3.339   0.438
   18SOL    HW3  103   0.419   3.488   0.434
   18SOL    MW4  104   0.367   3.420   0.422
   19SOL     OW  105   0.563   3.853   0.372
   19SOL    HW2  106   0.632   3.842   0.306
   19SOL    HW3  107   0.578   3.940   0.408
   19SOL    MW4  108   0.574   3.863   0.368
   20SOL     OW  109   3.952   3.711   0.490
   20SOL    HW2  110   3.909   3.663   0.561
   20SOL    HW3  111   4.033   3.663   0.474
   20SOL    MW4  112   3.957   3.699   0.498
   21SOL     OW  113   4.480   3.881   0.295
   21SOL    HW2  114   4.447   3.882   0.385
   21SOL    HW3  115   4.575   3.873   0.304
   21SOL    MW4  116   4.488   3.880   0.308
   22SOL     OW  117   4.435   4.488   0.462
   22SOL    HW2  118   4.382   4.445   0.395
   22SOL    HW3  119   4.380   4.486   0.541
   22SOL    MW4  120   4.421   4.482   0.464
   23SOL     OW  121   4.284   4.390   0.256
   23SOL    HW2  122   4.346   4.320   0.239
   23SOL    HW3  123   4.200   4.346   0.267
   23SOL    MW4  124   4.281   4.375   0.255
   24SOL     OW  125   4.440   4.170   0.287
   24SOL    HW2  126   4.446   4.084   0.245
   24SOL    HW3  127   4.385   4.156   0.364
   24SOL    MW4  128   4.433   4.157   0.292
   25SOL     OW  129   0.512   3.213   0.496
   25SOL    HW2  130   0.488   3.211   0.589
   25SOL    HW3  131   0.606   3.231   0.497
   25SOL    MW4  132   0.521   3.215   0.508
   26SOL     OW  133   0.451   4.527   0.412
   26SOL    HW2  134   0.363   4.493   0.425
   26SOL    HW3  135   0.475   4.499   0.323
   26SOL    MW4  136   0.443   4.519   0.402
   27SOL     OW  137   0.151   0.285   0.397
   27SOL    HW2  138   0.088   0.223   0.433
   27SOL    HW3  139   0.235   0.240   0.402
   27SOL    MW4  140   0.154   0.271   0.402
   28SOL     OW  141   4.402   0.628   0.367
   28SOL    HW2  142   4.409   0.601   0.275
   28SOL    HW3  143   4.490   0.614   0.403
   28SOL    MW4  144   4.415   0.623   0.360
   29SOL     OW  145   0.912   4.488   0.486
   29SOL    HW2  146   0.979   4.422   0.506
   29SOL    HW3  147   0.831   4.437   0.474
   29SOL    MW4  148   0.910   4.473   0.487
   30SOL     OW  149   1.154   1.002   0.483
   30SOL    HW2  150   1.141   1.053   0.563
   30SOL    HW3  151   1.074   0.949   0.476
   30SOL    MW4  152   1.142   1.001   0.493
   31SOL     OW  153   0.685   0.529   0.515
   31SOL    HW2  154   0.770   0.551   0.477
   31SOL    HW3  155   0.666   0.441   0.483
   31SOL    MW4  156   0.694   0.521   0.506
   32SOL     OW  157   0.316   1.180   0.468
   32SOL    HW2  158   0.244   1.138   0.421
   32SOL    HW3  159   0.380   1.110   0.481
   32SOL    MW4  160   0.315   1.165   0.464
   33SOL     OW  161   0.266   1.998   0.433
   33SOL    HW2  162   0.213   1.918   0.430
   33SOL    HW3  163   0.233   2.052   0.362
   33SOL    MW4  164   0.255   1.994   0.423
   34SOL     OW  165   0.653   2.171   0.232
   34SOL    HW2  166   0.739   2.146   0.265
   34SOL    HW3  167   0.611   2.088   0.207
   34SOL    MW4  168   0.659   2.157   0.233
   35SOL     OW  169   0.784   2.664   0.342
   35SOL    HW2  170   0.858   2.636   0.396
   35SOL    HW3  171   0.794   2.758   0.333
   35SOL    MW4  172   0.795   2.673   0.348
   36SOL     OW  173   0.419   2.621   0.091
   36SOL    HW2  174   0.491   2.575   0.133
   36SOL    HW3  175   0.448   2.635   0.001
   36SOL    MW4  176   0.432   2.617   0.085
   37SOL     OW  177   3.899   2.270   0.229
   37SOL    HW2  178   3.878   2.251   0.137
   37SOL    HW3  179   3.938   2.189   0.262
   37SOL    MW4  180   3.902   2.257   0.221
   38SOL     OW  181   1.409   2.597   0.463
   38SOL    HW2  182   1.495   2.570   0.432
   38SOL    HW3  183   1.348   2.554   0.403
   38SOL    MW4  184   1.412   2.588   0.451
   39SOL     OW  185   0.538   2.548   0.476
   39SOL    HW2  186   0.475   2.611   0.441
   39SOL    HW3  187   0.624   2.585   0.455
   39SOL    MW4  188   0.541   2.561   0.469
   40SOL     OW  189   4.387   3.172   0.454
   40SOL    HW2  190   4.452   3.223   0.405
   40SOL    HW3  191   4.401   3.082   0.426
   40SOL    MW4  192   4.398   3.167   0.444
   41SOL     OW  193   0.368   2.734   0.351
   41SOL    HW2  194   0.380   2.722   0.257
   41SOL    HW3  195   0.422   2.810   0.373
   41SOL    MW4  196   0.377   2.742   0.341
   42SOL     OW  197   0.898   0.331   0.220
   42SOL    HW2  198   0.948   0.342   0.139
   42SOL    HW3  199   0.909   0.414   0.267
   42SOL    MW4  200   0.906   0.343   0.215
   43SOL     OW  201   0.166   3.602   0.529
   43SOL    HW2  202   0.187   3.683   0.483
   43SOL    HW3  203   0.228   3.538   0.496
   43SOL    MW4  204   0.177   3.604   0.519
   44SOL     OW  205   0.529   3.611   0.500
   44SOL    HW2  206   0.544   3.701   0.470
   44SOL    HW3  207   0.570   3.608   0.586
   44SOL    MW4  208   0.536   3.623   0.507
   45SOL     OW  209   1.095   3.574   0.531
   45SOL    HW2  210   1.005   3.558   0.502
   45SOL    HW3  211   1.141   3.493   0.510
   45SOL    MW4  212   1.089   3.561   0.524
   46SOL     OW  213   0.214   4.382   0.506
   46SOL    HW2  214   0.125   4.411   0.485
   46SOL    HW3  215   0.215   4.289   0.483
   46SOL    MW4  216   0.202   4.373   0.500
   47SOL     OW  217   0.824   3.553   0.464
   47SOL    HW2  218   0.793   3.621   0.404
   47SOL    HW3  219   0.764   3.558   0.538
   47SOL    MW4  220   0.812   3.563   0.466
   48SOL     OW  221   0.650   4.361   0.503
   48SOL    HW2  222   0.596   4.436   0.478
   48SOL    HW3  223   0.654   4.365   0.599
   48SOL    MW4  224   0.643   4.371   0.513
   49SOL     OW  225   0.648   0.271   0.423
   49SOL    HW2  226   0.711   0.216   0.469
   49SOL    HW3  227   0.669   0.261   0.331
   49SOL    MW4  228   0.659   0.262   0.417
   50SOL     OW  229   0.928   0.556   0.386
   50SOL    HW2  230   0.929   0.645   0.420
   50SOL    HW3  231   0.992   0.509   0.439
   50SOL    MW4  232   0.936   0.561   0.398
   51SOL     OW  233   0.412   0.664   0.452
   51SOL    HW2  234   0.340   0.604   0.474
   51SOL    HW3  235   0.491   0.620   0.484
   51SOL    MW4  236   0.413   0.650   0.459
   52SOL     OW  237   1.433   0.514   0.570
   52SOL    HW2  238   1.406   0.604   0.552
   52SOL    HW3  239   1.501   0.522   0.637
   52SOL    MW4  240   1.439   0.527   0.576
   53SOL     OW  241   1.934   0.801   0.385
   53SOL    HW2  242   1.854   0.828   0.430
   53SOL    HW3  243   1.942   0.861   0.311
   53SOL    MW4  244   1.925   0.812   0.381
   54SOL     OW  245   1.695   0.875   0.504
   54SOL    HW2  246   1.606   0.845   0.486
   54SOL    HW3  247   1.711   0.848   0.595
   54SOL    MW4  248   1.685   0.867   0.514
   55SOL     OW  249   0.504   1.376   0.419
   55SOL    HW2  250   0.594   1.342   0.418
   55SOL    HW3  251   0.450   1.302   0.393
   55SOL    MW4  252   0.509   1.362   0.415
   56SOL     OW  253   0.786   1.275   0.433
   56SOL    HW2  254   0.768   1.192   0.390
   56SOL    HW3  255   0.881   1.280   0.437
   56SOL    MW4  256   0.796   1.265   0.428
   57SOL     OW  257   1.296   1.367   0.278
   57SOL    HW2  258   1.359   1.434   0.306
   57SOL    HW3  259   1.277   1.389   0.186
   57SOL    MW4  260   1.302   1.379   0.269
   58SOL     OW  261   1.055   1.318   0.462
   58SOL    HW2  262   1.133   1.302   0.409
   58SOL    HW3  263   1.059   1.411   0.483
   58SOL    MW4  264   1.066   1.328   0.458
   59SOL     OW  265   1.091   1.576   0.582
   59SOL    HW2  266   1.144   1.638   0.532
   59SOL    HW3  267   1.008   1.622   0.597
   59SOL    MW4  268   1.087   1.590   0.577
   60SOL     OW  269   0.181   2.166   0.234
   60SOL    HW2  270   0.094   2.183   0.269
   60SOL    HW3  271   0.226   2.251   0.241
   60SOL    MW4  272   0.175   2.180   0.239
   61SOL     OW  273   0.736   1.932   0.527
   61SOL    HW2  274   0.678   1.894   0.462
   61SOL    HW3  275   0.775   1.857   0.572
   61SOL    MW4  276   0.734   1.917   0.524
   62SOL     OW  277   0.783   2.337   0.511
   62SOL    HW2  278   0.836   2.260   0.491
   62SOL    HW3  279   0.823   2.374   0.589
   62SOL    MW4  280   0.795   2.332   0.519
   63SOL     OW  281   0.479   2.198   0.538
   63SOL    HW2  282   0.426   2.123   0.511
   63SOL    HW3  283   0.530   2.165   0.612
   63SOL    MW4  284   0.479   2.183   0.544
   64SOL     OW  285   1.008   2.606   0.502
   64SOL    HW2  286   1.054   2.536   0.456
   64SOL    HW3  287   0.974   2.564   0.581
   64SOL    MW4  288   1.010   2.591   0.507
   65SOL     OW  289   0.636   2.465   0.189
   65SOL    HW2  290   0.713   2.513   0.220
   65SOL    HW3  291   0.671   2.406   0.122
   65SOL    MW4  292   0.651   2.464   0.184
   66SOL     OW  293   0.546   2.929   0.455
   66SOL    HW2  294   0.522   3.020   0.471
   66SOL    HW3  295   0.570   2.895   0.542
   66SOL    MW4  296   0.546   2.936   0.469
   67SOL     OW  297   0.791   3.251   0.479
   67SOL    HW2  298   0.839   3.238   0.561
   67SOL    HW3  299   0.789   3.346   0.468
   67SOL    MW4  300   0.797   3.262   0.489
   68SOL     OW  301   2.041   3.651   0.438
   68SOL    HW2  302   2.049   3.614   0.526
   68SOL    HW3  303   2.043   3.575   0.380
   68SOL    MW4  304   2.043   3.636   0.442
   69SOL     OW  305   0.890   4.041   0.509
   69SOL    HW2  306   0.810   4.089   0.491
   69SOL    HW3  307   0.888   4.023   0.603
   69SOL    MW4  308   0.879   4.045   0.519
   70SOL     OW  309   0.600   4.097   0.512
   70SOL    HW2  310   0.547   4.073   0.588
   70SOL    HW3  311   0.582   4.190   0.499
   70SOL    MW4  312   0.591   4.106   0.521
   71SOL     OW  313   1.091   4.252   0.520
   71SOL    HW2  314   1.042   4.169   0.521
   71SOL    HW3  315   1.098   4.277   0.612
   71SOL    MW4  316   1.085   4.244   0.532
   72SOL     OW  317   1.142   0.428   0.526
   72SOL    HW2  318   1.118   0.347   0.481
   72SOL    HW3  319   1.237   0.434   0.515
   72SOL    MW4  320   1.151   0.418   0.519
   73SOL     OW  321   0.850   0.086   0.535
   73SOL    HW2  322   0.887  -0.001   0.519
   73SOL    HW3  323   0.863   0.101   0.629
   73SOL    MW4  324   0.857   0.076   0.546
   74SOL     OW  325   1.353   0.086   0.489
   74SOL    HW2  326   1.285   0.114   0.429
   74SOL    HW3  327   1.425   0.148   0.474
   74SOL    MW4  328   1.354   0.098   0.479
   75SOL     OW  329   1.988   4.460   0.143
   75SOL    HW2  330   1.960   4.474   0.052
   75SOL    HW3  331   1.911   4.481   0.196
   75SOL    MW4  332   1.974   4.465   0.138
   76SOL     OW  333   1.082   0.193   0.400
   76SOL    HW2  334   1.025   0.134   0.448
   76SOL    HW3  335   1.030   0.222   0.325
   76SOL    MW4  336   1.068   0.189   0.396
   77SOL     OW  337   2.057   0.549   0.476
   77SOL    HW2  338   2.003   0.611   0.428
   77SOL    HW3  339   2.072   0.477   0.415
   77SOL    MW4  340   2.052   0.547   0.462
   78SOL     OW  341   2.437   0.890   0.427
   78SOL    HW2  342   2.456   0.972   0.472
   78SOL    HW3  343   2.343   0.877   0.437
   78SOL    MW4  344   2.427   0.899   0.434
   79SOL     OW  345   1.873   1.273   0.351
   79SOL    HW2  346   1.795   1.228   0.384
   79SOL    HW3  347   1.858   1.365   0.369
   79SOL    MW4  348   1.861   1.279   0.358
   80SOL     OW  349   1.663   1.153   0.495
   80SOL    HW2  350   1.696   1.063   0.498
   80SOL    HW3  351   1.572   1.144   0.467
   80SOL    MW4  352   1.656   1.140   0.491
   81SOL     OW  353   1.395   1.145   0.393
   81SOL    HW2  354   1.314   1.103   0.425
   81SOL    HW3  355   1.365   1.225   0.351
   81SOL    MW4  356   1.380   1.150   0.392
   82SOL     OW  357   1.516   1.569   0.344
   82SOL    HW2  358   1.609   1.573   0.367
   82SOL    HW3  359   1.477   1.645   0.386
   82SOL    MW4  360   1.523   1.579   0.353
   83SOL     OW  361   1.189   2.413   0.392
   83SOL    HW2  362   1.233   2.354   0.453
   83SOL    HW3  363   1.195   2.369   0.308
   83SOL    MW4  364   1.196   2.400   0.389
   84SOL     OW  365   1.484   2.888   0.477
   84SOL    HW2  366   1.429   2.812   0.460
   84SOL    HW3  367   1.513   2.877   0.568
   84SOL    MW4  368   1.481   2.876   0.487
   85SOL     OW  369   1.826   2.294   0.224
   85SOL    HW2  370   1.851   2.334   0.140
   85SOL    HW3  371   1.905   2.300   0.278
   85SOL    MW4  372   1.840   2.300   0.220
   86SOL     OW  373   1.475   2.023   0.459
   86SOL    HW2  374   1.414   2.096   0.474
   86SOL    HW3  375   1.562   2.063   0.467
   86SOL    MW4  376   1.478   2.038   0.462
   87SOL     OW  377   0.895   2.107   0.364
   87SOL    HW2  378   0.986   2.078   0.376
   87SOL    HW3  379   0.843   2.043   0.413
   87SOL    MW4  380   0.900   2.094   0.372
   88SOL     OW  381   0.815   2.965   0.374
   88SOL    HW2  382   0.726   2.949   0.405
   88SOL    HW3  383   0.822   3.060   0.370
   88SOL    MW4  384   0.804   2.975   0.377
   89SOL     OW  385   2.048   2.300   0.409
   89SOL    HW2  386   2.032   2.211   0.442
   89SOL    HW3  387   2.142   2.313   0.421
   89SOL    MW4  388   2.058   2.290   0.415
   90SOL     OW  389   1.762   0.282   0.268
   90SOL    HW2  390   1.735   0.209   0.213
   90SOL    HW3  391   1.689   0.297   0.327
   90SOL    MW4  392   1.749   0.274   0.269
   91SOL     OW  393   1.151   3.842   0.438
   91SOL    HW2  394   1.133   3.752   0.465
   91SOL    HW3  395   1.096   3.895   0.495
   91SOL    MW4  396   1.141   3.837   0.449
   92SOL     OW  397   1.743   3.019   0.420
   92SOL    HW2  398   1.736   3.110   0.447
   92SOL    HW3  399   1.658   2.981   0.442
   92SOL    MW4  400   1.731   3.026   0.427
   93SOL     OW  401   1.414   3.883   0.449
   93SOL    HW2  402   1.326   3.846   0.436
   93SOL    HW3  403   1.398   3.969   0.489
   93SOL    MW4  404   1.400   3.890   0.452
   94SOL     OW  405   1.286   3.088   0.501
   94SOL    HW2  406   1.354   3.029   0.469
   94SOL    HW3  407   1.204   3.044   0.477
   94SOL    MW4  408   1.284   3.074   0.494
   95SOL     OW  409   2.294   3.769   0.337
   95SOL    HW2  410   2.201   3.754   0.350
   95SOL    HW3  411   2.336   3.691   0.371
   95SOL    MW4  412   2.288   3.757   0.343
   96SOL     OW  413   0.824   3.800   0.285
   96SOL    HW2  414   0.856   3.858   0.353
   96SOL    HW3  415   0.879   3.817   0.209
   96SOL    MW4  416   0.835   3.810   0.284
   97SOL     OW  417   1.799   4.464   0.348
   97SOL    HW2  418   1.719   4.506   0.381
   97SOL    HW3  419   1.779   4.371   0.347
   97SOL    MW4  420   1.786   4.457   0.353
   98SOL     OW  421   1.939   4.559   0.581
   98SOL    HW2  422   1.948   4.474   0.624
   98SOL    HW3  423   1.897   4.539   0.497
   98SOL    MW4  424   1.935   4.545   0.575
   99SOL     OW  425   1.922   0.195   0.476
   99SOL    HW2  426   1.862   0.155   0.539
   99SOL    HW3  427   1.866   0.221   0.403
   99SOL    MW4  428   1.907   0.193   0.475
  100SOL     OW  429   1.350   4.143   0.535
  100SOL    HW2  430   1.268   4.189   0.518
  100SOL    HW3  431   1.418   4.204   0.509
  100SOL    MW4  432   1.348   4.157   0.529
  101SOL     OW  433   2.359   0.564   0.366
  101SOL    HW2  434   2.277   0.602   0.397
  101SOL    HW3  435   2.419   0.639   0.361
  101SOL    MW4  436   2.356   0.579   0.369
  102SOL     OW  437   1.731   2.150   0.522
  102SOL    HW2  438   1.811   2.112   0.486
  102SOL    HW3  439   1.722   2.234   0.476
  102SOL    MW4  440   1.741   2.156   0.511
  103SOL     OW  441   2.109   1.176   0.458
  103SOL    HW2  442   2.175   1.233   0.418
  103SOL    HW3  443   2.028   1.198   0.413
  103SOL    MW4  444   2.107   1.187   0.447
  104SOL     OW  445   2.485   1.152   0.536
  104SOL    HW2  446   2.567   1.198   0.515
  104SOL    HW3  447   2.417   1.203   0.490
  104SOL    MW4  448   2.487   1.165   0.527
  105SOL     OW  449   2.180   1.853   0.366
  105SOL    HW2  450   2.248   1.919   0.383
  105SOL    HW3  451   2.156   1.867   0.275
  105SOL    MW4  452   2.186   1.864   0.356
  106SOL     OW  453   1.796   1.528   0.498
  106SOL    HW2  454   1.875   1.541   0.550
  106SOL    HW3  455   1.727   1.514   0.563
  106SOL    MW4  456   1.797   1.528   0.513
  107SOL     OW  457   1.325   1.777   0.486
  107SOL    HW2  458   1.393   1.844   0.474
  107SOL    HW3  459   1.331   1.753   0.579
  107SOL    MW4  460   1.335   1.782   0.497
  108SOL     OW  461   2.352   2.317   0.493
  108SOL    HW2  462   2.420   2.380   0.469
  108SOL    HW3  463   2.326   2.341   0.581
  108SOL    MW4  464   2.358   2.328   0.501
  109SOL     OW  465   1.789   3.294   0.483
  109SOL    HW2  466   1.719   3.357   0.471
  109SOL    HW3  467   1.864   3.332   0.437
  109SOL    MW4  468   1.790   3.307   0.475
  110SOL     OW  469   1.050   2.912   0.495
  110SOL    HW2  470   0.981   2.918   0.429
  110SOL    HW3  471   1.056   2.819   0.516
  110SOL    MW4  472   1.042   2.901   0.489
  111SOL     OW  473   1.536   3.442   0.432
  111SOL    HW2  474   1.511   3.455   0.340
  111SOL    HW3  475   1.545   3.531   0.467
  111SOL    MW4  476   1.534   3.455   0.424
  112SOL     OW  477   1.153   2.000   0.449
  112SOL    HW2  478   1.141   2.008   0.544
  112SOL    HW3  479   1.212   1.925   0.439
  112SOL    MW4  480   1.159   1.991   0.460
  113SOL     OW  481   3.698   1.769   0.291
  113SOL    HW2  482   3.733   1.778   0.380
  113SOL    HW3  483   3.677   1.676   0.283
  113SOL    MW4  484   3.700   1.758   0.302
  114SOL     OW  485   1.911   2.536   0.547
  114SOL    HW2  486   1.984   2.495   0.500
  114SOL    HW3  487   1.918   2.629   0.525
  114SOL    MW4  488   1.921   2.543   0.538
  115SOL     OW  489   1.328   2.228   0.560
  115SOL    HW2  490   1.342   2.296   0.627
  115SOL    HW3  491   1.257   2.174   0.595
  115SOL    MW4  492   1.320   2.230   0.573
  116SOL     OW  493   1.252   3.365   0.481
  116SOL    HW2  494   1.346   3.384   0.483
  116SOL    HW3  495   1.246   3.272   0.459
  116SOL    MW4  496   1.264   3.355   0.479
  117SOL     OW  497   2.181   3.185   0.414
  117SOL    HW2  498   2.134   3.105   0.391
  117SOL    HW3  499   2.199   3.177   0.507
  117SOL    MW4  500   2.177   3.173   0.423
  118SOL     OW  501   1.786   4.196   0.436
  118SOL    HW2  502   1.750   4.118   0.395
  118SOL    HW3  503   1.880   4.179   0.442
  118SOL    MW4  504   1.794   4.184   0.432
  119SOL     OW  505   1.592   3.696   0.537
  119SOL    HW2  506   1.526   3.760   0.511
  119SOL    HW3  507   1.675   3.743   0.527
  119SOL    MW4  508   1.594   3.711   0.532
  120SOL     OW  509   1.553   4.326   0.523
  120SOL    HW2  510   1.551   4.342   0.618
  120SOL    HW3  511   1.633   4.277   0.508
  120SOL    MW4  512   1.563   4.322   0.534
  121SOL     OW  513   1.554   4.576   0.444
  121SOL    HW2  514   1.472   4.624   0.444
  121SOL    HW3  515   1.533   4.491   0.483
  121SOL    MW4  516   1.540   4.571   0.449
  122SOL     OW  517   2.196   4.530   0.499
  122SOL    HW2  518   2.247   4.496   0.573
  122SOL    HW3  519   2.106   4.535   0.532
  122SOL    MW4  520   2.190   4.526   0.513
  123SOL     OW  521   2.199   0.152   0.492
  123SOL    HW2  522   2.211   0.059   0.472
  123SOL    HW3  523   2.104   0.165   0.484
  123SOL    MW4  524   2.188   0.141   0.489
  124SOL     OW  525   2.796   1.517   0.426
  124SOL    HW2  526   2.713   1.564   0.435
  124SOL    HW3  527   2.781   1.434   0.472
  124SOL    MW4  528   2.783   1.512   0.433
  125SOL     OW  529   2.861   0.550   0.489
  125SOL    HW2  530   2.797   0.612   0.453
  125SOL    HW3  531   2.946   0.587   0.467
  125SOL    MW4  532   2.864   0.563   0.481
  126SOL     OW  533   2.169   0.902   0.509
  126SOL    HW2  534   2.145   0.994   0.493
  126SOL    HW3  535   2.096   0.852   0.472
  126SOL    MW4  536   2.156   0.908   0.502
  127SOL     OW  537   2.766   1.259   0.533
  127SOL    HW2  538   2.818   1.194   0.485
  127SOL    HW3  539   2.801   1.257   0.622
  127SOL    MW4  540   2.777   1.250   0.538
  128SOL     OW  541   2.568   1.698   0.467
  128SOL    HW2  542   2.572   1.787   0.433
  128SOL    HW3  543   2.590   1.706   0.559
  128SOL    MW4  544   2.572   1.711   0.475
  129SOL     OW  545   3.148   1.964   0.362
  129SOL    HW2  546   3.158   1.988   0.454
  129SOL    HW3  547   3.236   1.940   0.333
  129SOL    MW4  548   3.161   1.964   0.371
  130SOL     OW  549   2.971   4.531   0.494
  130SOL    HW2  550   2.986   4.625   0.504
  130SOL    HW3  551   2.985   4.494   0.581
  130SOL    MW4  552   2.975   4.539   0.506
  131SOL     OW  553   2.000   2.036   0.487
  131SOL    HW2  554   1.984   2.020   0.580
  131SOL    HW3  555   2.063   1.969   0.461
  131SOL    MW4  556   2.006   2.025   0.496
  132SOL     OW  557   1.580   1.508   0.674
  132SOL    HW2  558   1.631   1.538   0.749
  132SOL    HW3  559   1.498   1.557   0.680
  132SOL    MW4  560   1.576   1.519   0.685
  133SOL     OW  561   2.369   2.027   0.467
  133SOL    HW2  562   2.368   2.122   0.453
  133SOL    HW3  563   2.460   2.001   0.451
  133SOL    MW4  564   2.381   2.036   0.463
  134SOL     OW  565   2.624   1.981   0.378
  134SOL    HW2  566   2.631   2.007   0.286
  134SOL    HW3  567   2.710   2.001   0.415
  134SOL    MW4  568   2.636   1.987   0.371
  135SOL     OW  569   2.593   2.790   0.451
  135SOL    HW2  570   2.606   2.883   0.430
  135SOL    HW3  571   2.565   2.790   0.542
  135SOL    MW4  572   2.591   2.802   0.460
  136SOL     OW  573   1.672   2.438   0.410
  136SOL    HW2  574   1.710   2.392   0.335
  136SOL    HW3  575   1.746   2.458   0.467
  136SOL    MW4  576   1.687   2.435   0.407
  137SOL     OW  577   1.916   2.805   0.476
  137SOL    HW2  578   1.965   2.836   0.552
  137SOL    HW3  579   1.857   2.877   0.454
  137SOL    MW4  580   1.915   2.819   0.483
  138SOL     OW  581   2.300   3.993   0.519
  138SOL    HW2  582   2.358   4.062   0.487
  138SOL    HW3  583   2.306   3.924   0.453
  138SOL    MW4  584   2.308   3.993   0.506
  139SOL     OW  585   2.593   4.116   0.209
  139SOL    HW2  586   2.595   4.024   0.185
  139SOL    HW3  587   2.663   4.156   0.157
  139SOL    MW4  588   2.602   4.109   0.199
  140SOL     OW  589   1.836   3.844   0.521
  140SOL    HW2  590   1.786   3.894   0.457
  140SOL    HW3  591   1.889   3.784   0.468
  140SOL    MW4  592   1.836   3.842   0.506
  141SOL     OW  593   2.039   3.409   0.309
  141SOL    HW2  594   2.046   3.398   0.214
  141SOL    HW3  595   2.102   3.348   0.345
  141SOL    MW4  596   2.048   3.399   0.301
  142SOL     OW  597   2.207   4.330   0.303
  142SOL    HW2  598   2.160   4.367   0.228
  142SOL    HW3  599   2.205   4.400   0.369
  142SOL    MW4  600   2.201   4.344   0.302
  143SOL     OW  601   2.078   4.143   0.462
  143SOL    HW2  602   2.151   4.091   0.493
  143SOL    HW3  603   2.111   4.189   0.385
  143SOL    MW4  604   2.092   4.142   0.456
  144SOL     OW  605   3.064   0.124   0.499
  144SOL    HW2  606   3.002   0.197   0.494
  144SOL    HW3  607   3.110   0.137   0.582
  144SOL    MW4  608   3.062   0.135   0.509
  145SOL     OW  609   2.562   3.830   0.228
  145SOL    HW2  610   2.599   3.743   0.209
  145SOL    HW3  611   2.468   3.814   0.236
  145SOL    MW4  612   2.555   3.816   0.226
  146SOL     OW  613   2.444   4.210   0.420
  146SOL    HW2  614   2.371   4.261   0.384
  146SOL    HW3  615   2.487   4.172   0.343
  146SOL    MW4  616   2.440   4.212   0.405
  147SOL     OW  617   2.424   0.329   0.511
  147SOL    HW2  618   2.390   0.404   0.463
  147SOL    HW3  619   2.361   0.259   0.494
  147SOL    MW4  620   2.411   0.330   0.502
  148SOL     OW  621   1.555   0.280   0.456
  148SOL    HW2  622   1.514   0.356   0.497
  148SOL    HW3  623   1.612   0.244   0.524
  148SOL    MW4  624   1.557   0.285   0.470
  149SOL     OW  625   3.120   0.672   0.436
  149SOL    HW2  626   3.140   0.765   0.449
  149SOL    HW3  627   3.205   0.629   0.437
  149SOL    MW4  628   3.134   0.679   0.438
  150SOL     OW  629   2.311   1.619   0.473
  150SOL    HW2  630   2.267   1.693   0.430
  150SOL    HW3  631   2.404   1.640   0.467
  150SOL    MW4  632   2.318   1.632   0.467
  151SOL     OW  633   2.716   0.849   0.426
  151SOL    HW2  634   2.766   0.919   0.383
  151SOL    HW3  635   2.626   0.882   0.428
  151SOL    MW4  636   2.710   0.863   0.421
  152SOL     OW  637   3.049   1.671   0.443
  152SOL    HW2  638   2.966   1.622   0.439
  152SOL    HW3  639   3.030   1.753   0.398
  152SOL    MW4  640   3.035   1.675   0.437
  153SOL     OW  641   3.415   1.357   0.281
  153SOL    HW2  642   3.403   1.287   0.345
  153SOL    HW3  643   3.429   1.312   0.198
  153SOL    MW4  644   3.415   1.342   0.278
  154SOL     OW  645   3.648   1.491   0.372
  154SOL    HW2  646   3.565   1.456   0.340
  154SOL    HW3  647   3.629   1.519   0.461
  154SOL    MW4  648   3.634   1.490   0.379
  155SOL     OW  649   2.717   0.075   0.736
  155SOL    HW2  650   2.729   0.157   0.784
  155SOL    HW3  651   2.697   0.102   0.647
  155SOL    MW4  652   2.716   0.089   0.731
  156SOL     OW  653   3.169   2.076   0.615
  156SOL    HW2  654   3.076   2.095   0.627
  156SOL    HW3  655   3.191   2.020   0.690
  156SOL    MW4  656   3.160   2.071   0.627
  157SOL     OW  657   2.796   2.337   0.375
  157SOL    HW2  658   2.868   2.389   0.410
  157SOL    HW3  659   2.826   2.246   0.383
  157SOL    MW4  660   2.809   2.332   0.381
  158SOL     OW  661   2.890   2.069   0.421
  158SOL    HW2  662   2.904   2.068   0.515
  158SOL    HW3  663   2.972   2.038   0.384
  158SOL    MW4  664   2.902   2.064   0.428
  159SOL     OW  665   2.570   2.484   0.456
  159SOL    HW2  666   2.585   2.578   0.451
  159SOL    HW3  667   2.648   2.444   0.417
  159SOL    MW4  668   2.582   2.491   0.450
  160SOL     OW  669   2.660   3.066   0.422
  160SOL    HW2  670   2.745   3.069   0.378
  160SOL    HW3  671   2.676   3.103   0.509
  160SOL    MW4  672   2.673   3.071   0.428
  161SOL     OW  673   2.912   3.178   0.333
  161SOL    HW2  674   2.972   3.177   0.409
  161SOL    HW3  675   2.932   3.260   0.289
  161SOL    MW4  676   2.923   3.189   0.337
  162SOL     OW  677   3.133   3.156   0.491
  162SOL    HW2  678   3.141   3.061   0.497
  162SOL    HW3  679   3.131   3.187   0.582
  162SOL    MW4  680   3.134   3.148   0.504
  163SOL     OW  681   2.452   3.280   0.391
  163SOL    HW2  682   2.501   3.200   0.409
  163SOL    HW3  683   2.360   3.252   0.391
  163SOL    MW4  684   2.446   3.266   0.393
  164SOL     OW  685   1.653   3.961   0.318
  164SOL    HW2  686   1.629   3.977   0.227
  164SOL    HW3  687   1.570   3.943   0.362
  164SOL    MW4  688   1.639   3.961   0.312
  165SOL     OW  689   3.087   3.915   0.336
  165SOL    HW2  690   3.071   3.986   0.398
  165SOL    HW3  691   3.094   3.959   0.251
  165SOL    MW4  692   3.086   3.931   0.333
  166SOL     OW  693   2.710   3.592   0.298
  166SOL    HW2  694   2.637   3.583   0.360
  166SOL    HW3  695   2.698   3.519   0.237
  166SOL    MW4  696   2.698   3.581   0.298
  167SOL     OW  697   2.488   3.541   0.459
  167SOL    HW2  698   2.485   3.568   0.551
  167SOL    HW3  699   2.486   3.446   0.462
  167SOL    MW4  700   2.487   3.532   0.472
  168SOL     OW  701   3.107   4.113   0.128
  168SOL    HW2  702   3.163   4.161   0.188
  168SOL    HW3  703   3.151   4.119   0.043
  168SOL    MW4  704   3.120   4.120   0.125
  169SOL     OW  705   3.206   4.276   0.308
  169SOL    HW2  706   3.157   4.263   0.390
  169SOL    HW3  707   3.156   4.342   0.261
  169SOL    MW4  708   3.193   4.283   0.313
  170SOL     OW  709   3.313   0.256   0.428
  170SOL    HW2  710   3.236   0.200   0.429
  170SOL    HW3  711   3.384   0.200   0.459
  170SOL    MW4  712   3.312   0.241   0.432
  171SOL     OW  713   3.047   4.477   0.195
  171SOL    HW2  714   3.018   4.488   0.286
  171SOL    HW3  715   3.067   4.566   0.166
  171SOL    MW4  716   3.046   4.491   0.203
  172SOL     OW  717   2.747   4.211   0.472
  172SOL    HW2  718   2.728   4.118   0.458
  172SOL    HW3  719   2.759   4.247   0.384
  172SOL    MW4  720   2.746   4.204   0.459
  173SOL     OW  721   2.644   0.164   0.465
  173SOL    HW2  722   2.577   0.230   0.478
  173SOL    HW3  723   2.719   0.213   0.428
  173SOL    MW4  724   2.645   0.179   0.462
  174SOL     OW  725   3.134   0.962   0.485
  174SOL    HW2  726   3.130   0.961   0.581
  174SOL    HW3  727   3.216   1.007   0.465
  174SOL    MW4  728   3.144   0.968   0.495
  175SOL     OW  729   3.364   0.530   0.484
  175SOL    HW2  730   3.353   0.436   0.472
  175SOL    HW3  731   3.421   0.557   0.412
  175SOL    MW4  732   3.370   0.521   0.473
  176SOL     OW  733   3.540   0.911   0.456
  176SOL    HW2  734   3.529   0.834   0.401
  176SOL    HW3  735   3.564   0.877   0.542
  176SOL    MW4  736   3.542   0.896   0.460
  177SOL     OW  737   2.873   0.290   0.381
  177SOL    HW2  738   2.927   0.290   0.302
  177SOL    HW3  739   2.866   0.383   0.405
  177SOL    MW4  740   2.879   0.302   0.374
  178SOL     OW  741   3.478   1.845   0.626
  178SOL    HW2  742   3.451   1.862   0.536
  178SOL    HW3  743   3.396   1.842   0.676
  178SOL    MW4  744   3.464   1.847   0.621
  179SOL     OW  745   3.413   1.844   0.345
  179SOL    HW2  746   3.368   1.765   0.316
  179SOL    HW3  747   3.501   1.838   0.306
  179SOL    MW4  748   3.419   1.833   0.336
  180SOL     OW  749   3.372   1.118   0.440
  180SOL    HW2  750   3.382   1.160   0.525
  180SOL    HW3  751   3.430   1.043   0.443
  180SOL    MW4  752   3.381   1.114   0.452
  181SOL     OW  753   4.005   1.764   0.176
  181SOL    HW2  754   4.014   1.800   0.088
  181SOL    HW3  755   3.911   1.766   0.194
  181SOL    MW4  756   3.994   1.769   0.167
  182SOL     OW  757   3.354   2.282   0.615
  182SOL    HW2  758   3.293   2.209   0.605
  182SOL    HW3  759   3.403   2.261   0.695
  182SOL    MW4  760   3.352   2.270   0.624
  183SOL     OW  761   3.478   2.622   0.640
  183SOL    HW2  762   3.529   2.634   0.720
  183SOL    HW3  763   3.504   2.535   0.608
  183SOL    MW4  764   3.488   2.612   0.646
  184SOL     OW  765   2.051   2.974   0.292
  184SOL    HW2  766   1.962   3.011   0.292
  184SOL    HW3  767   2.043   2.891   0.339
  184SOL    MW4  768   2.038   2.968   0.298
  185SOL     OW  769   3.228   2.616   0.338
  185SOL    HW2  770   3.213   2.603   0.244
  185SOL    HW3  771   3.307   2.565   0.356
  185SOL    MW4  772   3.237   2.608   0.328
  186SOL     OW  773   2.887   2.814   0.799
  186SOL    HW2  774   2.893   2.805   0.703
  186SOL    HW3  775   2.963   2.766   0.832
  186SOL    MW4  776   2.898   2.807   0.790
  187SOL     OW  777   3.530   0.323   0.233
  187SOL    HW2  778   3.448   0.289   0.268
  187SOL    HW3  779   3.598   0.276   0.282
  187SOL    MW4  780   3.528   0.313   0.244
  188SOL     OW  781   3.023   4.136   0.500
  188SOL    HW2  782   2.933   4.168   0.505
  188SOL    HW3  783   3.047   4.117   0.590
  188SOL    MW4  784   3.014   4.138   0.512
  189SOL     OW  785   3.273   3.614   0.630
  189SOL    HW2  786   3.271   3.547   0.562
  189SOL    HW3  787   3.236   3.570   0.707
  189SOL    MW4  788   3.268   3.599   0.631
  190SOL     OW  789   3.623   3.035   0.450
  190SOL    HW2  790   3.714   3.055   0.432
  190SOL    HW3  791   3.616   2.940   0.435
  190SOL    MW4  792   3.634   3.025   0.446
  191SOL     OW  793   3.304   3.388   0.449
  191SOL    HW2  794   3.251   3.308   0.447
  191SOL    HW3  795   3.393   3.357   0.427
  191SOL    MW4  796   3.309   3.373   0.446
  192SOL     OW  797   2.701   3.922   0.475
  192SOL    HW2  798   2.772   3.857   0.471
  192SOL    HW3  799   2.650   3.906   0.396
  192SOL    MW4  800   2.704   3.911   0.464
  193SOL     OW  801   2.616   3.333   0.169
  193SOL    HW2  802   2.553   3.324   0.240
  193SOL    HW3  803   2.612   3.249   0.123
  193SOL    MW4  804   2.608   3.320   0.172
  194SOL     OW  805   4.228   0.208   0.377
  194SOL    HW2  806   4.300   0.162   0.420
  194SOL    HW3  807   4.244   0.195   0.283
  194SOL    MW4  808   4.240   0.200   0.370
  195SOL     OW  809   3.732   0.219   0.408
  195SOL    HW2  810   3.744   0.301   0.456
  195SOL    HW3  811   3.821   0.186   0.394
  195SOL    MW4  812   3.746   0.225   0.413
  196SOL     OW  813   3.558   0.615   0.256
  196SOL    HW2  814   3.555   0.532   0.208
  196SOL    HW3  815   3.629   0.663   0.215
  196SOL    MW4  816   3.567   0.610   0.244
  197SOL     OW  817   3.799   0.752   0.218
  197SOL    HW2  818   3.808   0.838   0.258
  197SOL    HW3  819   3.862   0.697   0.264
  197SOL    MW4  820   3.809   0.756   0.229
  198SOL     OW  821   3.989   0.603   0.378
  198SOL    HW2  822   4.076   0.565   0.394
  198SOL    HW3  823   3.928   0.538   0.413
  198SOL    MW4  824   3.992   0.589   0.385
  199SOL     OW  825   4.322   0.867   0.513
  199SOL    HW2  826   4.230   0.881   0.491
  199SOL    HW3  827   4.351   0.798   0.454
  199SOL    MW4  828   4.314   0.860   0.502
  200SOL     OW  829   3.806   0.990   0.411
  200SOL    HW2  830   3.805   1.083   0.391
  200SOL    HW3  831   3.719   0.972   0.447
  200SOL    MW4  832   3.794   1.000   0.413
  201SOL     OW  833   4.138   1.630   0.415
  201SOL    HW2  834   4.084   1.673   0.349
  201SOL    HW3  835   4.218   1.682   0.419
  201SOL    MW4  836   4.141   1.642   0.407
  202SOL     OW  837   3.828   1.278   0.421
  202SOL    HW2  838   3.919   1.291   0.395
  202SOL    HW3  839   3.782   1.355   0.388
  202SOL    MW4  840   3.834   1.290   0.413
  203SOL     OW  841   3.273   1.635   0.262
  203SOL    HW2  842   3.194   1.645   0.315
  203SOL    HW3  843   3.282   1.540   0.252
  203SOL    MW4  844   3.264   1.624   0.268
  204SOL     OW  845   2.899   1.071   0.393
  204SOL    HW2  846   2.935   1.139   0.336
  204SOL    HW3  847   2.976   1.031   0.433
  204SOL    MW4  848   2.914   1.075   0.391
  205SOL     OW  849   3.724   2.447   0.407
  205SOL    HW2  850   3.776   2.423   0.330
  205SOL    HW3  851   3.762   2.396   0.478
  205SOL    MW4  852   3.736   2.437   0.406
  206SOL     OW  853   4.207   2.760   0.513
  206SOL    HW2  854   4.217   2.666   0.499
  206SOL    HW3  855   4.113   2.774   0.520
  206SOL    MW4  856   4.196   2.750   0.512
  207SOL     OW  857   2.999   2.505   0.487
  207SOL    HW2  858   3.041   2.500   0.573
  207SOL    HW3  859   3.062   2.550   0.432
  207SOL    MW4  860   3.013   2.510   0.491
  208SOL     OW  861   2.901   3.747   0.438
  208SOL    HW2  862   2.963   3.795   0.385
  208SOL    HW3  863   2.851   3.695   0.376
  208SOL    MW4  864   2.902   3.747   0.423
  209SOL     OW  865   3.132   2.880   0.473
  209SOL    HW2  866   3.168   2.822   0.407
  209SOL    HW3  867   3.042   2.851   0.486
  209SOL    MW4  868   3.125   2.869   0.466
  210SOL     OW  869   3.920   2.809   0.538
  210SOL    HW2  870   3.840   2.763   0.510
  210SOL    HW3  871   3.920   2.890   0.488
  210SOL    MW4  872   3.909   2.814   0.528
  211SOL     OW  873   3.656   2.717   0.425
  211SOL    HW2  874   3.669   2.626   0.398
  211SOL    HW3  875   3.599   2.711   0.501
  211SOL    MW4  876   3.650   2.704   0.431
  212SOL     OW  877   3.916   3.982   0.436
  212SOL    HW2  878   3.821   3.985   0.426
  212SOL    HW3  879   3.935   3.889   0.450
  212SOL    MW4  880   3.906   3.970   0.436
  213SOL     OW  881   3.445   2.428   0.385
  213SOL    HW2  882   3.428   2.356   0.446
  213SOL    HW3  883   3.538   2.422   0.366
  213SOL    MW4  884   3.455   2.418   0.391
  214SOL     OW  885   3.226   3.877   0.582
  214SOL    HW2  886   3.250   3.788   0.609
  214SOL    HW3  887   3.204   3.868   0.489
  214SOL    MW4  888   3.226   3.864   0.573
  215SOL     OW  889   4.358   3.917   0.561
  215SOL    HW2  890   4.303   3.872   0.625
  215SOL    HW3  891   4.309   3.997   0.540
  215SOL    MW4  892   4.344   3.922   0.567
  216SOL     OW  893   3.406   4.275   0.562
  216SOL    HW2  894   3.376   4.284   0.472
  216SOL    HW3  895   3.428   4.182   0.571
  216SOL    MW4  896   3.405   4.264   0.551
  217SOL     OW  897   3.622   4.438   0.552
  217SOL    HW2  898   3.557   4.372   0.575
  217SOL    HW3  899   3.693   4.424   0.615
  217SOL    MW4  900   3.623   4.427   0.564
  218SOL     OW  901   4.466   0.092   0.484
  218SOL    HW2  902   4.477  -0.002   0.469
  218SOL    HW3  903   4.448   0.098   0.578
  218SOL    MW4  904   4.465   0.080   0.495
  219SOL     OW  905   4.039   0.858   0.458
  219SOL    HW2  906   3.953   0.898   0.451
  219SOL    HW3  907   4.027   0.769   0.425
  219SOL    MW4  908   4.026   0.851   0.453
  220SOL     OW  909   0.433   1.641   0.454
  220SOL    HW2  910   0.445   1.547   0.436
  220SOL    HW3  911   0.347   1.661   0.417
  220SOL    MW4  912   0.423   1.631   0.447
  221SOL     OW  913   4.216   0.465   0.491
  221SOL    HW2  914   4.225   0.378   0.453
  221SOL    HW3  915   4.292   0.514   0.458
  221SOL    MW4  916   4.227   0.460   0.482
  222SOL     OW  917   0.025   1.082   0.440
  222SOL    HW2  918  -0.035   1.012   0.468
  222SOL    HW3  919  -0.023   1.163   0.457
  222SOL    MW4  920   0.011   1.083   0.446
  223SOL     OW  921   3.524   0.078   0.510
  223SOL    HW2  922   3.540  -0.015   0.522
  223SOL    HW3  923   3.603   0.112   0.468
  223SOL    MW4  924   3.536   0.070   0.506
  224SOL     OW  925   4.108   1.363   0.349
  224SOL    HW2  926   4.132   1.444   0.394
  224SOL    HW3  927   4.166   1.359   0.273
  224SOL    MW4  928   4.119   1.373   0.345
  225SOL     OW  929   4.336   1.279   0.488
  225SOL    HW2  930   4.318   1.267   0.581
  225SOL    HW3  931   4.249   1.293   0.449
  225SOL    MW4  932   4.322   1.279   0.495
  226SOL     OW  933   4.176   2.390   0.250
  226SOL    HW2  934   4.085   2.360   0.246
  226SOL    HW3  935   4.185   2.425   0.339
  226SOL    MW4  936   4.165   2.391   0.261
  227SOL     OW  937   4.351   1.802   0.464
  227SOL    HW2  938   4.335   1.896   0.479
  227SOL    HW3  939   4.376   1.767   0.549
  227SOL    MW4  940   4.352   1.810   0.477
  228SOL     OW  941   4.405   2.260   0.317
  228SOL    HW2  942   4.454   2.336   0.350
  228SOL    HW3  943   4.321   2.296   0.290
  228SOL    MW4  944   4.400   2.275   0.318
  229SOL     OW  945   4.285   2.079   0.501
  229SOL    HW2  946   4.200   2.057   0.465
  229SOL    HW3  947   4.325   2.136   0.435
  229SOL    MW4  948   4.279   2.084   0.488
  230SOL     OW  949   0.096   2.455   0.413
  230SOL    HW2  950   0.094   2.549   0.431
  230SOL    HW3  951   0.079   2.414   0.498
  230SOL    MW4  952   0.093   2.462   0.426
  231SOL     OW  953   4.159   3.562   0.437
  231SOL    HW2  954   4.242   3.557   0.391
  231SOL    HW3  955   4.108   3.488   0.403
  231SOL    MW4  956   4.163   3.551   0.427
  232SOL     OW  957   4.253   2.488   0.499
  232SOL    HW2  958   4.190   2.483   0.571
  232SOL    HW3  959   4.339   2.480   0.542
  232SOL    MW4  960   4.256   2.486   0.514
  233SOL     OW  961   0.255   3.855   0.361
  233SOL    HW2  962   0.248   3.941   0.401
  233SOL    HW3  963   0.350   3.841   0.352
  233SOL    MW4  964   0.267   3.865   0.365
  234SOL     OW  965   4.423   3.606   0.350
  234SOL    HW2  966   4.453   3.677   0.293
  234SOL    HW3  967   4.498   3.589   0.408
  234SOL    MW4  968   4.437   3.613   0.350
  235SOL     OW  969   0.069   3.345   0.321
  235SOL    HW2  970   0.157   3.381   0.332
  235SOL    HW3  971   0.011   3.420   0.328
  235SOL    MW4  972   0.073   3.360   0.323
  236SOL     OW  973   3.640   3.959   0.408
  236SOL    HW2  974   3.585   3.964   0.487
  236SOL    HW3  975   3.609   3.881   0.362
  236SOL    MW4  976   3.628   3.950   0.413
  237SOL     OW  977   3.919   3.024   0.362
  237SOL    HW2  978   3.911   3.047   0.269
  237SOL    HW3  979   3.977   3.091   0.398
  237SOL    MW4  980   3.925   3.036   0.354
  238SOL     OW  981   0.185   4.111   0.469
  238SOL    HW2  982   0.162   4.093   0.560
  238SOL    HW3  983   0.101   4.116   0.423
  238SOL    MW4  984   0.171   4.110   0.475
  239SOL     OW  985   4.041   4.257   0.369
  239SOL    HW2  986   3.997   4.173   0.384
  239SOL    HW3  987   3.973   4.322   0.388
  239SOL    MW4  988   4.026   4.254   0.373
  240SOL     OW  989   4.271   4.176   0.504
  240SOL    HW2  990   4.283   4.240   0.574
  240SOL    HW3  991   4.192   4.205   0.459
  240SOL    MW4  992   4.262   4.188   0.507
  241SOL     OW  993   3.841   4.468   0.387
  241SOL    HW2  994   3.762   4.460   0.440
  241SOL    HW3  995   3.813   4.453   0.297
  241SOL    MW4  996   3.827   4.465   0.382
  242SOL     OW  997   0.210   0.006   0.850
  242SOL    HW2  998   0.228  -0.081   0.815
  242SOL    HW3  999   0.124   0.029   0.814
  242SOL    MW4 1000   0.201  -0.003   0.841
  243SOL     OW 1001   4.444   0.094   0.754
  243SOL    HW2 1002   4.362   0.046   0.767
  243SOL    HW3 1003   4.426   0.183   0.784
  243SOL    MW4 1004   4.431   0.099   0.759
  244SOL     OW 1005   4.453   0.364   0.806
  244SOL    HW2 1006   4.452   0.360   0.902
  244SOL    HW3 1007   4.528   0.420   0.785
  244SOL    MW4 1008   4.463   0.371   0.816
  245SOL     OW 1009   0.193   0.509   0.741
  245SOL    HW2 1010   0.269   0.464   0.779
  245SOL    HW3 1011   0.197   0.597   0.777
  245SOL    MW4 1012   0.204   0.515   0.750
  246SOL     OW 1013   0.188   0.759   0.854
  246SOL    HW2 1014   0.162   0.737   0.943
  246SOL    HW3 1015   0.114   0.810   0.819
  246SOL    MW4 1016   0.175   0.763   0.861
  247SOL     OW 1017   4.448   0.870   0.760
  247SOL    HW2 1018   4.398   0.812   0.818
  247SOL    HW3 1019   4.402   0.865   0.676
  247SOL    MW4 1020   4.435   0.861   0.756
  248SOL     OW 1021   0.013   1.136   0.833
  248SOL    HW2 1022   0.016   1.134   0.928
  248SOL    HW3 1023  -0.020   1.050   0.807
  248SOL    MW4 1024   0.009   1.125   0.842
  249SOL     OW 1025   0.210   1.281   0.716
  249SOL    HW2 1026   0.144   1.216   0.741
  249SOL    HW3 1027   0.245   1.249   0.633
  249SOL    MW4 1028   0.206   1.268   0.709
  250SOL     OW 1029   0.152   1.528   0.858
  250SOL    HW2 1030   0.234   1.565   0.826
  250SOL    HW3 1031   0.146   1.443   0.815
  250SOL    MW4 1032   0.162   1.521   0.848
  251SOL     OW 1033   4.439   1.687   0.704
  251SOL    HW2 1034   4.374   1.637   0.753
  251SOL    HW3 1035   4.516   1.630   0.701
  251SOL    MW4 1036   4.441   1.673   0.710
  252SOL     OW 1037   0.031   1.938   0.844
  252SOL    HW2 1038   0.115   1.964   0.805
  252SOL    HW3 1039   0.011   1.854   0.803
  252SOL    MW4 1040   0.039   1.930   0.833
  253SOL     OW 1041   0.239   2.043   0.715
  253SOL    HW2 1042   0.208   2.133   0.725
  253SOL    HW3 1043   0.235   2.026   0.621
  253SOL    MW4 1044   0.235   2.052   0.704
  254SOL     OW 1045   0.228   2.339   0.777
  254SOL    HW2 1046   0.222   2.328   0.872
  254SOL    HW3 1047   0.303   2.396   0.764
  254SOL    MW4 1048   0.237   2.345   0.788
  255SOL     OW 1049   4.481   2.444   0.676
  255SOL    HW2 1050   4.422   2.396   0.734
  255SOL    HW3 1051   4.569   2.422   0.706
  255SOL    MW4 1052   4.485   2.435   0.687
  256SOL     OW 1053   0.014   2.700   0.872
  256SOL    HW2 1054  -0.002   2.680   0.964
  256SOL    HW3 1055   0.031   2.616   0.831
  256SOL    MW4 1056   0.014   2.686   0.879
  257SOL     OW 1057   0.199   2.850   0.738
  257SOL    HW2 1058   0.139   2.803   0.795
  257SOL    HW3 1059   0.170   2.828   0.649
  257SOL    MW4 1060   0.187   2.841   0.733
  258SOL     OW 1061   0.226   3.112   0.839
  258SOL    HW2 1062   0.214   3.104   0.934
  258SOL    HW3 1063   0.239   3.022   0.810
  258SOL    MW4 1064   0.226   3.099   0.848
  259SOL     OW 1065   4.477   3.197   0.723
  259SOL    HW2 1066   4.566   3.167   0.740
  259SOL    HW3 1067   4.468   3.196   0.628
  259SOL    MW4 1068   4.487   3.193   0.713
  260SOL     OW 1069   0.004   3.461   0.819
  260SOL    HW2 1070  -0.070   3.499   0.773
  260SOL    HW3 1071   0.012   3.372   0.783
  260SOL    MW4 1072  -0.005   3.454   0.808
  261SOL     OW 1073   0.261   3.585   0.796
  261SOL    HW2 1074   0.199   3.535   0.850
  261SOL    HW3 1075   0.225   3.580   0.707
  261SOL    MW4 1076   0.248   3.578   0.792
  262SOL     OW 1077   0.259   3.877   0.848
  262SOL    HW2 1078   0.245   3.880   0.943
  262SOL    HW3 1079   0.248   3.785   0.825
  262SOL    MW4 1080   0.256   3.865   0.858
  263SOL     OW 1081   0.070   4.029   0.707
  263SOL    HW2 1082   0.003   3.976   0.663
  263SOL    HW3 1083   0.126   3.966   0.752
  263SOL    MW4 1084   0.069   4.013   0.707
  264SOL     OW 1085   4.477   4.256   0.853
  264SOL    HW2 1086   4.471   4.247   0.948
  264SOL    HW3 1087   4.517   4.175   0.823
  264SOL    MW4 1088   4.481   4.244   0.862
  265SOL     OW 1089   0.205   4.412   0.777
  265SOL    HW2 1090   0.127   4.363   0.803
  265SOL    HW3 1091   0.213   4.396   0.683
  265SOL    MW4 1092   0.195   4.403   0.768
  266SOL     OW 1093   0.651   0.027   0.857
  266SOL    HW2 1094   0.633   0.027   0.951
  266SOL    HW3 1095   0.574   0.069   0.819
  266SOL    MW4 1096   0.638   0.033   0.864
  267SOL     OW 1097   0.426   0.139   0.740
  267SOL    HW2 1098   0.350   0.091   0.772
  267SOL    HW3 1099   0.407   0.156   0.647
  267SOL    MW4 1100   0.413   0.135   0.732
  268SOL     OW 1101   0.417   0.385   0.865
  268SOL    HW2 1102   0.498   0.422   0.829
  268SOL    HW3 1103   0.414   0.296   0.831
  268SOL    MW4 1104   0.428   0.378   0.856
  269SOL     OW 1105   0.649   0.508   0.781
  269SOL    HW2 1106   0.724   0.469   0.827
  269SOL    HW3 1107   0.680   0.522   0.692
  269SOL    MW4 1108   0.663   0.504   0.775
  270SOL     OW 1109   0.655   0.754   0.879
  270SOL    HW2 1110   0.595   0.813   0.833
  270SOL    HW3 1111   0.645   0.670   0.835
  270SOL    MW4 1112   0.646   0.751   0.867
  271SOL     OW 1113   0.437   0.907   0.779
  271SOL    HW2 1114   0.419   0.986   0.829
  271SOL    HW3 1115   0.362   0.849   0.796
  271SOL    MW4 1116   0.425   0.910   0.788
  272SOL     OW 1117   0.442   1.229   0.857
  272SOL    HW2 1118   0.520   1.243   0.803
  272SOL    HW3 1119   0.371   1.269   0.808
  272SOL    MW4 1120   0.443   1.236   0.844
  273SOL     OW 1121   0.661   1.285   0.683
  273SOL    HW2 1122   0.666   1.379   0.696
  273SOL    HW3 1123   0.708   1.269   0.601
  273SOL    MW4 1124   0.668   1.295   0.674
  274SOL     OW 1125   0.693   1.563   0.776
  274SOL    HW2 1126   0.697   1.556   0.871
  274SOL    HW3 1127   0.604   1.592   0.758
  274SOL    MW4 1128   0.682   1.566   0.786
  275SOL     OW 1129   0.420   1.642   0.755
  275SOL    HW2 1130   0.438   1.729   0.791
  275SOL    HW3 1131   0.419   1.654   0.660
  275SOL    MW4 1132   0.422   1.655   0.748
  276SOL     OW 1133   0.448   1.932   0.838
  276SOL    HW2 1134   0.431   1.926   0.932
  276SOL    HW3 1135   0.373   1.979   0.802
  276SOL    MW4 1136   0.436   1.937   0.845
  277SOL     OW 1137   0.657   2.087   0.752
  277SOL    HW2 1138   0.586   2.039   0.794
  277SOL    HW3 1139   0.667   2.044   0.667
  277SOL    MW4 1140   0.649   2.075   0.746
  278SOL     OW 1141   0.685   2.348   0.842
  278SOL    HW2 1142   0.684   2.327   0.935
  278SOL    HW3 1143   0.671   2.263   0.799
  278SOL    MW4 1144   0.683   2.334   0.849
  279SOL     OW 1145   0.463   2.487   0.738
  279SOL    HW2 1146   0.533   2.430   0.771
  279SOL    HW3 1147   0.490   2.511   0.650
  279SOL    MW4 1148   0.476   2.483   0.731
  280SOL     OW 1149   0.405   2.721   0.866
  280SOL    HW2 1150   0.404   2.633   0.827
  280SOL    HW3 1151   0.333   2.767   0.823
  280SOL    MW4 1152   0.395   2.715   0.855
  281SOL     OW 1153   0.601   2.802   0.690
  281SOL    HW2 1154   0.684   2.769   0.726
  281SOL    HW3 1155   0.535   2.768   0.750
  281SOL    MW4 1156   0.604   2.793   0.703
  282SOL     OW 1157   0.694   3.058   0.802
  282SOL    HW2 1158   0.612   3.104   0.786
  282SOL    HW3 1159   0.676   2.968   0.773
  282SOL    MW4 1160   0.680   3.052   0.796
  283SOL     OW 1161   0.477   3.228   0.779
  283SOL    HW2 1162   0.497   3.316   0.811
  283SOL    HW3 1163   0.387   3.211   0.808
  283SOL    MW4 1164   0.468   3.237   0.787
  284SOL     OW 1165   0.498   3.487   0.872
  284SOL    HW2 1166   0.491   3.473   0.967
  284SOL    HW3 1167   0.414   3.523   0.846
  284SOL    MW4 1168   0.486   3.490   0.881
  285SOL     OW 1169   0.706   3.631   0.747
  285SOL    HW2 1170   0.637   3.586   0.796
  285SOL    HW3 1171   0.702   3.721   0.776
  285SOL    MW4 1172   0.697   3.637   0.757
  286SOL     OW 1173   0.678   3.896   0.862
  286SOL    HW2 1174   0.754   3.947   0.834
  286SOL    HW3 1175   0.603   3.944   0.826
  286SOL    MW4 1176   0.678   3.909   0.854
  287SOL     OW 1177   0.474   4.047   0.769
  287SOL    HW2 1178   0.463   4.122   0.829
  287SOL    HW3 1179   0.402   3.988   0.792
  287SOL    MW4 1180   0.463   4.049   0.780
  288SOL     OW 1181   0.407   4.263   0.911
  288SOL    HW2 1182   0.403   4.261   1.007
  288SOL    HW3 1183   0.328   4.309   0.885
  288SOL    MW4 1184   0.396   4.269   0.920
  289SOL     OW 1185   0.662   4.407   0.802
  289SOL    HW2 1186   0.579   4.390   0.847
  289SOL    HW3 1187   0.666   4.502   0.794
  289SOL    MW4 1188   0.651   4.417   0.807
  290SOL     OW 1189   1.107   4.642   0.866
  290SOL    HW2 1190   1.189   4.685   0.840
  290SOL    HW3 1191   1.038   4.696   0.828
  290SOL    MW4 1192   1.109   4.655   0.858
  291SOL     OW 1193   0.898   0.130   0.795
  291SOL    HW2 1194   0.895   0.221   0.824
  291SOL    HW3 1195   0.814   0.093   0.820
  291SOL    MW4 1196   0.887   0.137   0.802
  292SOL     OW 1197   0.877   0.393   0.901
  292SOL    HW2 1198   0.877   0.385   0.997
  292SOL    HW3 1199   0.956   0.443   0.882
  292SOL    MW4 1200   0.888   0.398   0.911
  293SOL     OW 1201   1.126   0.481   0.797
  293SOL    HW2 1202   1.198   0.433   0.838
  293SOL    HW3 1203   1.137   0.466   0.703
  293SOL    MW4 1204   1.137   0.473   0.790
  294SOL     OW 1205   1.140   0.755   0.857
  294SOL    HW2 1206   1.152   0.761   0.951
  294SOL    HW3 1207   1.148   0.662   0.837
  294SOL    MW4 1208   1.142   0.744   0.866
  295SOL     OW 1209   0.907   0.878   0.771
  295SOL    HW2 1210   0.977   0.831   0.817
  295SOL    HW3 1211   0.826   0.846   0.811
  295SOL    MW4 1212   0.906   0.868   0.782
  296SOL     OW 1213   0.865   1.143   0.852
  296SOL    HW2 1214   0.882   1.062   0.804
  296SOL    HW3 1215   0.802   1.191   0.797
  296SOL    MW4 1216   0.859   1.139   0.838
  297SOL     OW 1217   1.105   1.199   0.714
  297SOL    HW2 1218   1.028   1.175   0.764
  297SOL    HW3 1219   1.071   1.232   0.631
  297SOL    MW4 1220   1.091   1.200   0.709
  298SOL     OW 1221   1.163   1.446   0.824
  298SOL    HW2 1222   1.118   1.484   0.748
  298SOL    HW3 1223   1.149   1.352   0.815
  298SOL    MW4 1224   1.155   1.439   0.813
  299SOL     OW 1225   0.869   1.737   0.671
  299SOL    HW2 1226   0.901   1.789   0.745
  299SOL    HW3 1227   0.798   1.685   0.707
  299SOL    MW4 1228   0.864   1.737   0.686
  300SOL     OW 1229   0.911   1.981   0.836
  300SOL    HW2 1230   0.903   1.956   0.928
  300SOL    HW3 1231   0.831   2.030   0.817
  300SOL    MW4 1232   0.899   1.985   0.845
  301SOL     OW 1233   1.097   2.130   0.698
  301SOL    HW2 1234   1.118   2.210   0.747
  301SOL    HW3 1235   1.021   2.093   0.745
  301SOL    MW4 1236   1.089   2.136   0.711
  302SOL     OW 1237   1.154   2.369   0.832
  302SOL    HW2 1238   1.151   2.378   0.927
  302SOL    HW3 1239   1.222   2.431   0.805
  302SOL    MW4 1240   1.162   2.379   0.841
  303SOL     OW 1241   0.906   2.465   0.721
  303SOL    HW2 1242   0.987   2.429   0.757
  303SOL    HW3 1243   0.839   2.444   0.787
  303SOL    MW4 1244   0.908   2.457   0.735
  304SOL     OW 1245   0.822   2.722   0.833
  304SOL    HW2 1246   0.834   2.740   0.926
  304SOL    HW3 1247   0.864   2.638   0.818
  304SOL    MW4 1248   0.829   2.714   0.843
  305SOL     OW 1249   1.071   2.834   0.783
  305SOL    HW2 1250   0.980   2.811   0.801
  305SOL    HW3 1251   1.069   2.877   0.698
  305SOL    MW4 1252   1.059   2.836   0.774
  306SOL     OW 1253   1.099   3.098   0.874
  306SOL    HW2 1254   1.017   3.136   0.842
  306SOL    HW3 1255   1.097   3.007   0.843
  306SOL    MW4 1256   1.088   3.091   0.866
  307SOL     OW 1257   0.887   3.254   0.755
  307SOL    HW2 1258   0.896   3.338   0.802
  307SOL    HW3 1259   0.819   3.208   0.803
  307SOL    MW4 1260   0.879   3.259   0.768
  308SOL     OW 1261   0.917   3.496   0.884
  308SOL    HW2 1262   1.001   3.535   0.861
  308SOL    HW3 1263   0.851   3.549   0.839
  308SOL    MW4 1264   0.919   3.508   0.875
  309SOL     OW 1265   1.177   3.618   0.792
  309SOL    HW2 1266   1.241   3.553   0.821
  309SOL    HW3 1267   1.151   3.589   0.705
  309SOL    MW4 1268   1.182   3.606   0.784
  310SOL     OW 1269   1.136   3.895   0.844
  310SOL    HW2 1270   1.154   3.913   0.936
  310SOL    HW3 1271   1.160   3.803   0.833
  310SOL    MW4 1272   1.142   3.885   0.855
  311SOL     OW 1273   0.908   4.031   0.779
  311SOL    HW2 1274   0.904   4.109   0.835
  311SOL    HW3 1275   0.991   3.990   0.801
  311SOL    MW4 1276   0.918   4.036   0.789
  312SOL     OW 1277   0.886   4.267   0.906
  312SOL    HW2 1278   0.964   4.308   0.870
  312SOL    HW3 1279   0.813   4.320   0.873
  312SOL    MW4 1280   0.886   4.279   0.897
  313SOL     OW 1281   1.124   4.378   0.773
  313SOL    HW2 1282   1.209   4.352   0.807
  313SOL    HW3 1283   1.111   4.467   0.807
  313SOL    MW4 1284   1.134   4.386   0.782
  314SOL     OW 1285   1.595   4.664   0.848
  314SOL    HW2 1286   1.593   4.655   0.944
  314SOL    HW3 1287   1.508   4.697   0.826
  314SOL    MW4 1288   1.584   4.667   0.858
  315SOL     OW 1289   1.345   0.076   0.774
  315SOL    HW2 1290   1.349   0.164   0.812
  315SOL    HW3 1291   1.334   0.091   0.680
  315SOL    MW4 1292   1.344   0.090   0.766
  316SOL     OW 1293   1.342   0.329   0.897
  316SOL    HW2 1294   1.330   0.336   0.991
  316SOL    HW3 1295   1.422   0.379   0.879
  316SOL    MW4 1296   1.351   0.336   0.907
  317SOL     OW 1297   1.595   0.462   0.801
  317SOL    HW2 1298   1.615   0.539   0.853
  317SOL    HW3 1299   1.662   0.398   0.826
  317SOL    MW4 1300   1.606   0.463   0.811
  318SOL     OW 1301   1.584   0.724   0.894
  318SOL    HW2 1302   1.661   0.771   0.863
  318SOL    HW3 1303   1.510   0.775   0.860
  318SOL    MW4 1304   1.584   0.737   0.885
  319SOL     OW 1305   1.361   0.869   0.770
  319SOL    HW2 1306   1.364   0.959   0.801
  319SOL    HW3 1307   1.272   0.840   0.789
  319SOL    MW4 1308   1.350   0.877   0.777
  320SOL     OW 1309   1.362   1.138   0.830
  320SOL    HW2 1310   1.435   1.180   0.785
  320SOL    HW3 1311   1.285   1.161   0.777
  320SOL    MW4 1312   1.361   1.147   0.817
  321SOL     OW 1313   1.602   1.242   0.733
  321SOL    HW2 1314   1.593   1.336   0.721
  321SOL    HW3 1315   1.631   1.209   0.648
  321SOL    MW4 1316   1.604   1.250   0.720
  322SOL     OW 1317   1.733   1.655   0.847
  322SOL    HW2 1318   1.711   1.643   0.940
  322SOL    HW3 1319   1.819   1.613   0.837
  322SOL    MW4 1320   1.741   1.648   0.858
  323SOL     OW 1321   1.376   1.688   0.750
  323SOL    HW2 1322   1.326   1.766   0.773
  323SOL    HW3 1323   1.335   1.617   0.799
  323SOL    MW4 1324   1.364   1.689   0.759
  324SOL     OW 1325   1.276   1.943   0.802
  324SOL    HW2 1326   1.282   1.941   0.898
  324SOL    HW3 1327   1.186   1.968   0.785
  324SOL    MW4 1328   1.265   1.946   0.813
  325SOL     OW 1329   1.523   2.072   0.729
  325SOL    HW2 1330   1.444   2.036   0.767
  325SOL    HW3 1331   1.511   2.062   0.634
  325SOL    MW4 1332   1.511   2.066   0.721
  326SOL     OW 1333   1.595   2.340   0.840
  326SOL    HW2 1334   1.524   2.398   0.811
  326SOL    HW3 1335   1.572   2.255   0.803
  326SOL    MW4 1336   1.583   2.337   0.831
  327SOL     OW 1337   1.406   2.500   0.706
  327SOL    HW2 1338   1.361   2.569   0.755
  327SOL    HW3 1339   1.413   2.534   0.617
  327SOL    MW4 1340   1.401   2.514   0.701
  328SOL     OW 1341   1.314   2.705   0.877
  328SOL    HW2 1342   1.351   2.707   0.966
  328SOL    HW3 1343   1.227   2.744   0.887
  328SOL    MW4 1344   1.308   2.711   0.890
  329SOL     OW 1345   1.574   2.829   0.756
  329SOL    HW2 1346   1.564   2.918   0.787
  329SOL    HW3 1347   1.496   2.783   0.788
  329SOL    MW4 1348   1.562   2.835   0.764
  330SOL     OW 1349   1.574   3.087   0.832
  330SOL    HW2 1350   1.562   3.093   0.926
  330SOL    HW3 1351   1.493   3.123   0.795
  330SOL    MW4 1352   1.562   3.093   0.839
  331SOL     OW 1353   1.345   3.188   0.753
  331SOL    HW2 1354   1.262   3.178   0.800
  331SOL    HW3 1355   1.322   3.175   0.661
  331SOL    MW4 1356   1.331   3.185   0.747
  332SOL     OW 1357   1.360   3.434   0.902
  332SOL    HW2 1358   1.425   3.485   0.854
  332SOL    HW3 1359   1.352   3.353   0.852
  332SOL    MW4 1360   1.368   3.430   0.889
  333SOL     OW 1361   1.567   3.606   0.796
  333SOL    HW2 1362   1.641   3.549   0.812
  333SOL    HW3 1363   1.574   3.631   0.704
  333SOL    MW4 1364   1.577   3.602   0.786
  334SOL     OW 1365   1.600   3.873   0.860
  334SOL    HW2 1366   1.533   3.919   0.809
  334SOL    HW3 1367   1.583   3.780   0.845
  334SOL    MW4 1368   1.589   3.867   0.851
  335SOL     OW 1369   1.380   4.015   0.775
  335SOL    HW2 1370   1.303   3.963   0.795
  335SOL    HW3 1371   1.369   4.039   0.683
  335SOL    MW4 1372   1.369   4.011   0.765
  336SOL     OW 1373   1.346   4.259   0.895
  336SOL    HW2 1374   1.419   4.307   0.857
  336SOL    HW3 1375   1.353   4.171   0.860
  336SOL    MW4 1376   1.356   4.254   0.885
  337SOL     OW 1377   1.565   4.388   0.785
  337SOL    HW2 1378   1.648   4.347   0.808
  337SOL    HW3 1379   1.578   4.481   0.805
  337SOL    MW4 1380   1.578   4.395   0.790
  338SOL     OW 1381   1.959   0.031   0.832
  338SOL    HW2 1382   2.047   0.064   0.811
  338SOL    HW3 1383   1.926  -0.004   0.750
  338SOL    MW4 1384   1.966   0.031   0.819
  339SOL     OW 1385   1.689   0.091   0.613
  339SOL    HW2 1386   1.651   0.029   0.551
  339SOL    HW3 1387   1.674   0.052   0.699
  339SOL    MW4 1388   1.682   0.078   0.616
  340SOL     OW 1389   1.821   0.307   0.878
  340SOL    HW2 1390   1.856   0.218   0.877
  340SOL    HW3 1391   1.879   0.356   0.819
  340SOL    MW4 1392   1.833   0.302   0.870
  341SOL     OW 1393   2.002   0.476   0.745
  341SOL    HW2 1394   2.009   0.489   0.651
  341SOL    HW3 1395   2.085   0.435   0.770
  341SOL    MW4 1396   2.014   0.472   0.736
  342SOL     OW 1397   2.038   0.729   0.854
  342SOL    HW2 1398   2.114   0.779   0.825
  342SOL    HW3 1399   2.053   0.641   0.820
  342SOL    MW4 1400   2.050   0.724   0.846
  343SOL     OW 1401   1.792   0.836   0.763
  343SOL    HW2 1402   1.801   0.929   0.783
  343SOL    HW3 1403   1.881   0.801   0.772
  343SOL    MW4 1404   1.805   0.843   0.767
  344SOL     OW 1405   1.801   1.102   0.829
  344SOL    HW2 1406   1.874   1.138   0.780
  344SOL    HW3 1407   1.724   1.151   0.799
  344SOL    MW4 1408   1.800   1.113   0.819
  345SOL     OW 1409   2.015   1.243   0.721
  345SOL    HW2 1410   2.093   1.246   0.777
  345SOL    HW3 1411   2.046   1.204   0.639
  345SOL    MW4 1412   2.030   1.238   0.717
  346SOL     OW 1413   1.959   1.494   0.791
  346SOL    HW2 1414   2.038   1.537   0.759
  346SOL    HW3 1415   1.971   1.402   0.770
  346SOL    MW4 1416   1.971   1.487   0.784
  347SOL     OW 1417   2.330   1.329   0.396
  347SOL    HW2 1418   2.380   1.353   0.318
  347SOL    HW3 1419   2.298   1.412   0.431
  347SOL    MW4 1420   2.332   1.343   0.390
  348SOL     OW 1421   1.734   1.939   0.869
  348SOL    HW2 1422   1.735   1.845   0.850
  348SOL    HW3 1423   1.665   1.974   0.812
  348SOL    MW4 1424   1.725   1.931   0.859
  349SOL     OW 1425   1.963   2.028   0.771
  349SOL    HW2 1426   1.992   2.108   0.814
  349SOL    HW3 1427   1.875   2.012   0.804
  349SOL    MW4 1428   1.955   2.036   0.781
  350SOL     OW 1429   2.042   2.273   0.854
  350SOL    HW2 1430   2.057   2.271   0.949
  350SOL    HW3 1431   1.970   2.334   0.842
  350SOL    MW4 1432   2.035   2.280   0.865
  351SOL     OW 1433   1.858   2.469   0.812
  351SOL    HW2 1434   1.767   2.437   0.814
  351SOL    HW3 1435   1.875   2.487   0.719
  351SOL    MW4 1436   1.848   2.467   0.800
  352SOL     OW 1437   1.824   2.754   0.908
  352SOL    HW2 1438   1.831   2.659   0.904
  352SOL    HW3 1439   1.766   2.777   0.835
  352SOL    MW4 1440   1.818   2.744   0.898
  353SOL     OW 1441   2.041   2.821   0.738
  353SOL    HW2 1442   2.122   2.773   0.752
  353SOL    HW3 1443   1.978   2.781   0.799
  353SOL    MW4 1444   2.043   2.809   0.748
  354SOL     OW 1445   2.022   3.079   0.873
  354SOL    HW2 1446   1.949   3.137   0.849
  354SOL    HW3 1447   1.999   2.995   0.833
  354SOL    MW4 1448   2.009   3.076   0.864
  355SOL     OW 1449   1.793   3.220   0.746
  355SOL    HW2 1450   1.719   3.163   0.764
  355SOL    HW3 1451   1.801   3.220   0.650
  355SOL    MW4 1452   1.784   3.213   0.736
  356SOL     OW 1453   1.812   3.489   0.833
  356SOL    HW2 1454   1.828   3.499   0.927
  356SOL    HW3 1455   1.807   3.395   0.819
  356SOL    MW4 1456   1.813   3.478   0.844
  357SOL     OW 1457   2.056   3.578   0.714
  357SOL    HW2 1458   2.088   3.657   0.757
  357SOL    HW3 1459   1.977   3.554   0.762
  357SOL    MW4 1460   2.050   3.585   0.726
  358SOL     OW 1461   2.057   3.820   0.849
  358SOL    HW2 1462   2.053   3.837   0.943
  358SOL    HW3 1463   1.986   3.873   0.812
  358SOL    MW4 1464   2.047   3.829   0.856
  359SOL     OW 1465   1.836   3.979   0.771
  359SOL    HW2 1466   1.760   3.935   0.808
  359SOL    HW3 1467   1.847   3.941   0.684
  359SOL    MW4 1468   1.827   3.968   0.764
  360SOL     OW 1469   1.791   4.231   0.838
  360SOL    HW2 1470   1.796   4.225   0.933
  360SOL    HW3 1471   1.814   4.144   0.807
  360SOL    MW4 1472   1.794   4.219   0.846
  361SOL     OW 1473   2.000   4.317   0.664
  361SOL    HW2 1474   1.915   4.294   0.702
  361SOL    HW3 1475   2.008   4.260   0.587
  361SOL    MW4 1476   1.990   4.307   0.659
  362SOL     OW 1477   2.481   4.649   0.824
  362SOL    HW2 1478   2.486   4.636   0.919
  362SOL    HW3 1479   2.568   4.677   0.798
  362SOL    MW4 1480   2.493   4.651   0.833
  363SOL     OW 1481   2.222   0.109   0.767
  363SOL    HW2 1482   2.307   0.068   0.783
  363SOL    HW3 1483   2.217   0.119   0.672
  363SOL    MW4 1484   2.232   0.105   0.757
  364SOL     OW 1485   2.250   0.378   0.865
  364SOL    HW2 1486   2.329   0.416   0.827
  364SOL    HW3 1487   2.255   0.285   0.845
  364SOL    MW4 1488   2.261   0.371   0.858
  365SOL     OW 1489   2.479   0.479   0.751
  365SOL    HW2 1490   2.476   0.441   0.663
  365SOL    HW3 1491   2.540   0.423   0.799
  365SOL    MW4 1492   2.487   0.467   0.746
  366SOL     OW 1493   2.471   0.752   0.828
  366SOL    HW2 1494   2.546   0.785   0.778
  366SOL    HW3 1495   2.473   0.658   0.814
  366SOL    MW4 1496   2.481   0.744   0.820
  367SOL     OW 1497   2.246   0.899   0.778
  367SOL    HW2 1498   2.323   0.842   0.780
  367SOL    HW3 1499   2.223   0.904   0.685
  367SOL    MW4 1500   2.253   0.893   0.766
  368SOL     OW 1501   2.243   1.180   0.890
  368SOL    HW2 1502   2.219   1.183   0.983
  368SOL    HW3 1503   2.253   1.087   0.871
  368SOL    MW4 1504   2.241   1.168   0.900
  369SOL     OW 1505   2.492   1.260   0.798
  369SOL    HW2 1506   2.413   1.220   0.833
  369SOL    HW3 1507   2.487   1.247   0.704
  369SOL    MW4 1508   2.481   1.253   0.790
  370SOL     OW 1509   2.434   1.538   0.850
  370SOL    HW2 1510   2.503   1.581   0.799
  370SOL    HW3 1511   2.448   1.445   0.835
  370SOL    MW4 1512   2.445   1.531   0.841
  371SOL     OW 1513   2.203   1.624   0.732
  371SOL    HW2 1514   2.278   1.583   0.776
  371SOL    HW3 1515   2.230   1.629   0.640
  371SOL    MW4 1516   2.216   1.619   0.725
  372SOL     OW 1517   2.197   1.890   0.850
  372SOL    HW2 1518   2.200   1.806   0.804
  372SOL    HW3 1519   2.109   1.923   0.832
  372SOL    MW4 1520   2.186   1.883   0.841
  373SOL     OW 1521   2.435   2.016   0.773
  373SOL    HW2 1522   2.361   1.981   0.823
  373SOL    HW3 1523   2.398   2.042   0.689
  373SOL    MW4 1524   2.420   2.015   0.769
  374SOL     OW 1525   2.476   2.276   0.867
  374SOL    HW2 1526   2.553   2.309   0.822
  374SOL    HW3 1527   2.479   2.181   0.853
  374SOL    MW4 1528   2.486   2.268   0.859
  375SOL     OW 1529   2.256   2.404   0.738
  375SOL    HW2 1530   2.331   2.374   0.791
  375SOL    HW3 1531   2.181   2.358   0.776
  375SOL    MW4 1532   2.256   2.394   0.750
  376SOL     OW 1533   2.266   2.679   0.813
  376SOL    HW2 1534   2.264   2.675   0.908
  376SOL    HW3 1535   2.273   2.587   0.785
  376SOL    MW4 1536   2.267   2.666   0.822
  377SOL     OW 1537   2.488   2.827   0.723
  377SOL    HW2 1538   2.551   2.763   0.757
  377SOL    HW3 1539   2.404   2.801   0.761
  377SOL    MW4 1540   2.486   2.816   0.733
  378SOL     OW 1541   2.474   3.078   0.809
  378SOL    HW2 1542   2.477   3.067   0.904
  378SOL    HW3 1543   2.486   2.989   0.775
  378SOL    MW4 1544   2.476   3.064   0.817
  379SOL     OW 1545   2.232   3.163   0.693
  379SOL    HW2 1546   2.168   3.127   0.754
  379SOL    HW3 1547   2.317   3.132   0.726
  379SOL    MW4 1548   2.235   3.154   0.705
  380SOL     OW 1549   2.233   3.403   0.831
  380SOL    HW2 1550   2.233   3.333   0.766
  380SOL    HW3 1551   2.169   3.466   0.797
  380SOL    MW4 1552   2.225   3.402   0.818
  381SOL     OW 1553   2.459   3.575   0.771
  381SOL    HW2 1554   2.541   3.536   0.801
  381SOL    HW3 1555   2.391   3.515   0.801
  381SOL    MW4 1556   2.461   3.562   0.779
  382SOL     OW 1557   2.486   3.844   0.845
  382SOL    HW2 1558   2.402   3.891   0.842
  382SOL    HW3 1559   2.465   3.757   0.812
  382SOL    MW4 1560   2.472   3.839   0.840
  383SOL     OW 1561   2.264   3.992   0.801
  383SOL    HW2 1562   2.186   3.936   0.808
  383SOL    HW3 1563   2.284   3.993   0.708
  383SOL    MW4 1564   2.256   3.984   0.790
  384SOL     OW 1565   2.240   4.269   0.832
  384SOL    HW2 1566   2.256   4.175   0.826
  384SOL    HW3 1567   2.150   4.279   0.800
  384SOL    MW4 1568   2.230   4.258   0.827
  385SOL     OW 1569   2.401   4.422   0.674
  385SOL    HW2 1570   2.423   4.497   0.730
  385SOL    HW3 1571   2.348   4.365   0.730
  385SOL    MW4 1572   2.397   4.425   0.689
  386SOL     OW 1573   2.950   4.660   0.841
  386SOL    HW2 1574   2.948   4.567   0.821
  386SOL    HW3 1575   2.865   4.693   0.811
  386SOL    MW4 1576   2.938   4.652   0.835
  387SOL     OW 1577   2.689   4.530   0.484
  387SOL    HW2 1578   2.785   4.532   0.480
  387SOL    HW3 1579   2.662   4.618   0.459
  387SOL    MW4 1580   2.698   4.541   0.480
  388SOL     OW 1581   2.676   0.322   0.867
  388SOL    HW2 1582   2.675   0.327   0.963
  388SOL    HW3 1583   2.737   0.391   0.841
  388SOL    MW4 1584   2.684   0.332   0.877
  389SOL     OW 1585   2.874   0.503   0.779
  389SOL    HW2 1586   2.967   0.489   0.796
  389SOL    HW3 1587   2.870   0.526   0.686
  389SOL    MW4 1588   2.886   0.504   0.769
  390SOL     OW 1589   2.903   0.751   0.865
  390SOL    HW2 1590   2.884   0.771   0.957
  390SOL    HW3 1591   2.892   0.656   0.859
  390SOL    MW4 1592   2.899   0.741   0.877
  391SOL     OW 1593   2.709   0.868   0.717
  391SOL    HW2 1594   2.792   0.834   0.752
  391SOL    HW3 1595   2.722   0.869   0.622
  391SOL    MW4 1596   2.722   0.864   0.709
  392SOL     OW 1597   2.705   1.094   0.869
  392SOL    HW2 1598   2.717   1.023   0.805
  392SOL    HW3 1599   2.640   1.151   0.829
  392SOL    MW4 1600   2.698   1.092   0.855
  393SOL     OW 1601   2.919   1.249   0.772
  393SOL    HW2 1602   3.013   1.244   0.788
  393SOL    HW3 1603   2.879   1.202   0.844
  393SOL    MW4 1604   2.926   1.242   0.783
  394SOL     OW 1605   2.894   1.544   0.814
  394SOL    HW2 1606   2.967   1.592   0.774
  394SOL    HW3 1607   2.913   1.452   0.794
  394SOL    MW4 1608   2.906   1.538   0.806
  395SOL     OW 1609   2.640   1.676   0.722
  395SOL    HW2 1610   2.649   1.770   0.741
  395SOL    HW3 1611   2.726   1.640   0.741
  395SOL    MW4 1612   2.652   1.684   0.727
  396SOL     OW 1613   2.698   1.944   0.813
  396SOL    HW2 1614   2.693   1.935   0.908
  396SOL    HW3 1615   2.615   1.985   0.788
  396SOL    MW4 1616   2.687   1.948   0.822
  397SOL     OW 1617   2.917   2.078   0.702
  397SOL    HW2 1618   2.922   2.155   0.759
  397SOL    HW3 1619   2.853   2.021   0.745
  397SOL    MW4 1620   2.909   2.081   0.715
  398SOL     OW 1621   2.923   2.314   0.819
  398SOL    HW2 1622   2.939   2.310   0.913
  398SOL    HW3 1623   2.830   2.335   0.812
  398SOL    MW4 1624   2.912   2.316   0.831
  399SOL     OW 1625   2.669   2.399   0.714
  399SOL    HW2 1626   2.624   2.412   0.630
  399SOL    HW3 1627   2.666   2.485   0.756
  399SOL    MW4 1628   2.663   2.412   0.708
  400SOL     OW 1629   2.673   2.638   0.828
  400SOL    HW2 1630   2.664   2.619   0.921
  400SOL    HW3 1631   2.749   2.697   0.823
  400SOL    MW4 1632   2.682   2.644   0.840
  401SOL     OW 1633   2.881   2.758   0.520
  401SOL    HW2 1634   2.901   2.664   0.521
  401SOL    HW3 1635   2.792   2.763   0.487
  401SOL    MW4 1636   2.872   2.746   0.516
  402SOL     OW 1637   2.888   3.096   0.866
  402SOL    HW2 1638   2.823   3.145   0.816
  402SOL    HW3 1639   2.882   3.007   0.832
  402SOL    MW4 1640   2.879   3.091   0.855
  403SOL     OW 1641   2.706   3.183   0.693
  403SOL    HW2 1642   2.714   3.277   0.708
  403SOL    HW3 1643   2.623   3.159   0.734
  403SOL    MW4 1644   2.696   3.192   0.701
  404SOL     OW 1645   2.708   3.447   0.809
  404SOL    HW2 1646   2.733   3.430   0.900
  404SOL    HW3 1647   2.772   3.511   0.778
  404SOL    MW4 1648   2.720   3.453   0.817
  405SOL     OW 1649   2.926   3.624   0.687
  405SOL    HW2 1650   2.928   3.704   0.739
  405SOL    HW3 1651   2.926   3.654   0.596
  405SOL    MW4 1652   2.927   3.638   0.682
  406SOL     OW 1653   2.911   3.865   0.850
  406SOL    HW2 1654   2.922   3.862   0.945
  406SOL    HW3 1655   2.825   3.907   0.838
  406SOL    MW4 1656   2.901   3.870   0.861
  407SOL     OW 1657   2.653   4.023   0.730
  407SOL    HW2 1658   2.603   3.958   0.780
  407SOL    HW3 1659   2.662   3.984   0.643
  407SOL    MW4 1660   2.647   4.009   0.725
  408SOL     OW 1661   2.684   4.291   0.774
  408SOL    HW2 1662   2.649   4.329   0.854
  408SOL    HW3 1663   2.669   4.197   0.783
  408SOL    MW4 1664   2.678   4.284   0.786
  409SOL     OW 1665   2.961   4.404   0.743
  409SOL    HW2 1666   3.027   4.361   0.797
  409SOL    HW3 1667   2.879   4.360   0.766
  409SOL    MW4 1668   2.959   4.392   0.753
  410SOL     OW 1669   3.387   0.009   0.867
  410SOL    HW2 1670   3.375   0.006   0.962
  410SOL    HW3 1671   3.312   0.059   0.836
  410SOL    MW4 1672   3.376   0.015   0.876
  411SOL     OW 1673   3.157   0.151   0.757
  411SOL    HW2 1674   3.141   0.230   0.808
  411SOL    HW3 1675   3.082   0.094   0.777
  411SOL    MW4 1676   3.145   0.154   0.766
  412SOL     OW 1677   3.136   0.422   0.845
  412SOL    HW2 1678   3.144   0.416   0.940
  412SOL    HW3 1679   3.206   0.481   0.819
  412SOL    MW4 1680   3.146   0.429   0.854
  413SOL     OW 1681   3.343   0.576   0.759
  413SOL    HW2 1682   3.409   0.525   0.805
  413SOL    HW3 1683   3.363   0.562   0.666
  413SOL    MW4 1684   3.354   0.568   0.753
  414SOL     OW 1685   3.360   0.846   0.821
  414SOL    HW2 1686   3.281   0.894   0.795
  414SOL    HW3 1687   3.338   0.754   0.806
  414SOL    MW4 1688   3.346   0.841   0.816
  415SOL     OW 1689   3.112   0.972   0.758
  415SOL    HW2 1690   3.135   1.059   0.790
  415SOL    HW3 1691   3.062   0.932   0.829
  415SOL    MW4 1692   3.109   0.978   0.772
  416SOL     OW 1693   3.176   1.210   0.856
  416SOL    HW2 1694   3.164   1.198   0.950
  416SOL    HW3 1695   3.223   1.293   0.848
  416SOL    MW4 1696   3.181   1.220   0.867
  417SOL     OW 1697   3.448   1.299   0.640
  417SOL    HW2 1698   3.505   1.248   0.698
  417SOL    HW3 1699   3.506   1.365   0.602
  417SOL    MW4 1700   3.463   1.301   0.643
  418SOL     OW 1701   3.276   1.451   0.805
  418SOL    HW2 1702   3.319   1.476   0.887
  418SOL    HW3 1703   3.346   1.414   0.751
  418SOL    MW4 1704   3.291   1.450   0.809
  419SOL     OW 1705   3.107   1.677   0.713
  419SOL    HW2 1706   3.162   1.600   0.728
  419SOL    HW3 1707   3.088   1.675   0.619
  419SOL    MW4 1708   3.112   1.666   0.702
  420SOL     OW 1709   3.258   1.890   0.797
  420SOL    HW2 1710   3.235   1.907   0.888
  420SOL    HW3 1711   3.206   1.814   0.772
  420SOL    MW4 1712   3.248   1.882   0.805
  421SOL     OW 1713   3.606   1.969   0.843
  421SOL    HW2 1714   3.546   2.043   0.849
  421SOL    HW3 1715   3.565   1.910   0.780
  421SOL    MW4 1716   3.593   1.971   0.835
  422SOL     OW 1717   3.476   2.224   0.876
  422SOL    HW2 1718   3.418   2.260   0.944
  422SOL    HW3 1719   3.553   2.281   0.877
  422SOL    MW4 1720   3.479   2.236   0.885
  423SOL     OW 1721   3.154   2.456   0.715
  423SOL    HW2 1722   3.226   2.405   0.679
  423SOL    HW3 1723   3.085   2.392   0.733
  423SOL    MW4 1724   3.154   2.441   0.713
  424SOL     OW 1725   3.140   2.689   0.863
  424SOL    HW2 1726   3.153   2.603   0.823
  424SOL    HW3 1727   3.202   2.747   0.819
  424SOL    MW4 1728   3.150   2.685   0.852
  425SOL     OW 1729   3.325   2.830   0.701
  425SOL    HW2 1730   3.271   2.853   0.626
  425SOL    HW3 1731   3.373   2.752   0.673
  425SOL    MW4 1732   3.324   2.823   0.687
  426SOL     OW 1733   3.351   3.079   0.820
  426SOL    HW2 1734   3.374   3.072   0.913
  426SOL    HW3 1735   3.345   2.989   0.790
  426SOL    MW4 1736   3.353   3.067   0.829
  427SOL     OW 1737   3.131   3.235   0.749
  427SOL    HW2 1738   3.211   3.189   0.774
  427SOL    HW3 1739   3.062   3.192   0.798
  427SOL    MW4 1740   3.133   3.224   0.759
  428SOL     OW 1741   3.128   3.493   0.836
  428SOL    HW2 1742   3.140   3.404   0.802
  428SOL    HW3 1743   3.053   3.527   0.787
  428SOL    MW4 1744   3.120   3.486   0.825
  429SOL     OW 1745   3.462   4.001   0.604
  429SOL    HW2 1746   3.492   3.987   0.694
  429SOL    HW3 1747   3.381   3.951   0.598
  429SOL    MW4 1748   3.455   3.993   0.615
  430SOL     OW 1749   3.542   3.953   0.856
  430SOL    HW2 1750   3.557   4.047   0.861
  430SOL    HW3 1751   3.470   3.937   0.917
  430SOL    MW4 1752   3.534   3.963   0.865
  431SOL     OW 1753   3.100   4.041   0.767
  431SOL    HW2 1754   3.146   3.974   0.716
  431SOL    HW3 1755   3.023   3.997   0.802
  431SOL    MW4 1756   3.096   4.026   0.765
  432SOL     OW 1757   3.151   4.279   0.903
  432SOL    HW2 1758   3.239   4.316   0.893
  432SOL    HW3 1759   3.156   4.193   0.861
  432SOL    MW4 1760   3.163   4.273   0.896
  433SOL     OW 1761   3.377   4.400   0.832
  433SOL    HW2 1762   3.397   4.493   0.824
  433SOL    HW3 1763   3.348   4.374   0.744
  433SOL    MW4 1764   3.376   4.409   0.819
  434SOL     OW 1765   3.785   4.632   0.873
  434SOL    HW2 1766   3.862   4.677   0.837
  434SOL    HW3 1767   3.711   4.681   0.838
  434SOL    MW4 1768   3.786   4.644   0.864
  435SOL     OW 1769   3.595   0.138   0.783
  435SOL    HW2 1770   3.523   0.091   0.826
  435SOL    HW3 1771   3.570   0.140   0.691
  435SOL    MW4 1772   3.582   0.132   0.777
  436SOL     OW 1773   3.543   0.409   0.858
  436SOL    HW2 1774   3.561   0.413   0.952
  436SOL    HW3 1775   3.555   0.316   0.835
  436SOL    MW4 1776   3.547   0.397   0.867
  437SOL     OW 1777   3.783   0.505   0.776
  437SOL    HW2 1778   3.795   0.594   0.811
  437SOL    HW3 1779   3.704   0.473   0.821
  437SOL    MW4 1780   3.774   0.513   0.787
  438SOL     OW 1781   3.798   0.759   0.864
  438SOL    HW2 1782   3.801   0.772   0.959
  438SOL    HW3 1783   3.883   0.789   0.833
  438SOL    MW4 1784   3.809   0.765   0.872
  439SOL     OW 1785   3.618   0.892   0.721
  439SOL    HW2 1786   3.674   0.849   0.785
  439SOL    HW3 1787   3.529   0.864   0.743
  439SOL    MW4 1788   3.614   0.883   0.732
  440SOL     OW 1789   3.628   1.157   0.817
  440SOL    HW2 1790   3.612   1.162   0.911
  440SOL    HW3 1791   3.648   1.065   0.801
  440SOL    MW4 1792   3.629   1.146   0.827
  441SOL     OW 1793   3.850   1.292   0.703
  441SOL    HW2 1794   3.764   1.263   0.735
  441SOL    HW3 1795   3.845   1.282   0.608
  441SOL    MW4 1796   3.838   1.287   0.695
  442SOL     OW 1797   3.855   1.532   0.831
  442SOL    HW2 1798   3.927   1.581   0.792
  442SOL    HW3 1799   3.855   1.448   0.786
  442SOL    MW4 1800   3.865   1.528   0.820
  443SOL     OW 1801   3.616   1.580   0.622
  443SOL    HW2 1802   3.597   1.673   0.630
  443SOL    HW3 1803   3.688   1.564   0.683
  443SOL    MW4 1804   3.623   1.590   0.631
  444SOL     OW 1805   3.821   2.056   0.701
  444SOL    HW2 1806   3.889   2.027   0.761
  444SOL    HW3 1807   3.740   2.021   0.739
  444SOL    MW4 1808   3.819   2.047   0.714
  445SOL     OW 1809   3.842   2.334   0.614
  445SOL    HW2 1810   3.805   2.361   0.697
  445SOL    HW3 1811   3.844   2.238   0.618
  445SOL    MW4 1812   3.838   2.325   0.625
  446SOL     OW 1813   3.847   1.862   0.507
  446SOL    HW2 1814   3.899   1.801   0.560
  446SOL    HW3 1815   3.828   1.935   0.566
  446SOL    MW4 1816   3.851   1.863   0.522
  447SOL     OW 1817   3.722   2.388   0.866
  447SOL    HW2 1818   3.701   2.474   0.901
  447SOL    HW3 1819   3.761   2.341   0.940
  447SOL    MW4 1820   3.725   2.393   0.880
  448SOL     OW 1821   3.622   2.652   0.868
  448SOL    HW2 1822   3.583   2.679   0.951
  448SOL    HW3 1823   3.692   2.715   0.852
  448SOL    MW4 1824   3.626   2.664   0.877
  449SOL     OW 1825   3.841   2.814   0.801
  449SOL    HW2 1826   3.815   2.905   0.810
  449SOL    HW3 1827   3.867   2.805   0.709
  449SOL    MW4 1828   3.841   2.825   0.790
  450SOL     OW 1829   3.808   3.098   0.818
  450SOL    HW2 1830   3.887   3.124   0.770
  450SOL    HW3 1831   3.736   3.122   0.761
  450SOL    MW4 1832   3.809   3.104   0.804
  451SOL     OW 1833   3.587   3.186   0.685
  451SOL    HW2 1834   3.515   3.149   0.736
  451SOL    HW3 1835   3.591   3.131   0.606
  451SOL    MW4 1836   3.578   3.174   0.681
  452SOL     OW 1837   3.575   3.465   0.796
  452SOL    HW2 1838   3.585   3.380   0.753
  452SOL    HW3 1839   3.496   3.503   0.757
  452SOL    MW4 1840   3.566   3.459   0.785
  453SOL     OW 1841   3.834   3.593   0.736
  453SOL    HW2 1842   3.882   3.528   0.788
  453SOL    HW3 1843   3.745   3.557   0.729
  453SOL    MW4 1844   3.829   3.579   0.742
  454SOL     OW 1845   3.802   3.858   0.826
  454SOL    HW2 1846   3.714   3.897   0.825
  454SOL    HW3 1847   3.789   3.772   0.787
  454SOL    MW4 1848   3.789   3.852   0.821
  455SOL     OW 1849   2.841   4.272   0.179
  455SOL    HW2 1850   2.883   4.357   0.166
  455SOL    HW3 1851   2.913   4.209   0.172
  455SOL    MW4 1852   2.856   4.275   0.176
  456SOL     OW 1853   3.626   4.223   0.878
  456SOL    HW2 1854   3.694   4.265   0.826
  456SOL    HW3 1855   3.552   4.283   0.873
  456SOL    MW4 1856   3.625   4.236   0.870
  457SOL     OW 1857   3.805   4.401   0.749
  457SOL    HW2 1858   3.893   4.367   0.766
  457SOL    HW3 1859   3.799   4.479   0.805
  457SOL    MW4 1860   3.816   4.407   0.758
  458SOL     OW 1861   4.210   4.614   0.812
  458SOL    HW2 1862   4.204   4.613   0.908
  458SOL    HW3 1863   4.135   4.667   0.785
  458SOL    MW4 1864   4.199   4.620   0.821
  459SOL     OW 1865   3.986   0.098   0.724
  459SOL    HW2 1866   3.991   0.184   0.767
  459SOL    HW3 1867   3.966   0.118   0.633
  459SOL    MW4 1868   3.984   0.112   0.718
  460SOL     OW 1869   3.998   0.366   0.889
  460SOL    HW2 1870   4.070   0.416   0.851
  460SOL    HW3 1871   3.919   0.403   0.848
  460SOL    MW4 1872   3.997   0.378   0.878
  461SOL     OW 1873   4.198   0.502   0.753
  461SOL    HW2 1874   4.289   0.474   0.767
  461SOL    HW3 1875   4.185   0.493   0.658
  461SOL    MW4 1876   4.209   0.497   0.742
  462SOL     OW 1877   4.217   0.731   0.886
  462SOL    HW2 1878   4.152   0.785   0.842
  462SOL    HW3 1879   4.211   0.646   0.843
  462SOL    MW4 1880   4.208   0.727   0.875
  463SOL     OW 1881   4.035   0.874   0.746
  463SOL    HW2 1882   4.046   0.968   0.759
  463SOL    HW3 1883   4.030   0.863   0.651
  463SOL    MW4 1884   4.036   0.885   0.736
  464SOL     OW 1885   4.055   1.148   0.820
  464SOL    HW2 1886   4.064   1.162   0.914
  464SOL    HW3 1887   3.982   1.204   0.794
  464SOL    MW4 1888   4.046   1.157   0.829
  465SOL     OW 1889   4.292   1.305   0.758
  465SOL    HW2 1890   4.214   1.251   0.768
  465SOL    HW3 1891   4.362   1.254   0.799
  465SOL    MW4 1892   4.291   1.292   0.765
  466SOL     OW 1893   4.242   1.559   0.846
  466SOL    HW2 1894   4.262   1.539   0.938
  466SOL    HW3 1895   4.275   1.483   0.797
  466SOL    MW4 1896   4.249   1.547   0.852
  467SOL     OW 1897   4.061   1.679   0.680
  467SOL    HW2 1898   4.118   1.638   0.744
  467SOL    HW3 1899   4.095   1.651   0.595
  467SOL    MW4 1900   4.073   1.670   0.677
  468SOL     OW 1901   4.050   1.927   0.830
  468SOL    HW2 1902   4.059   1.850   0.775
  468SOL    HW3 1903   4.132   1.975   0.820
  468SOL    MW4 1904   4.062   1.923   0.822
  469SOL     OW 1905   4.276   2.081   0.781
  469SOL    HW2 1906   4.365   2.046   0.793
  469SOL    HW3 1907   4.271   2.100   0.687
  469SOL    MW4 1908   4.287   2.079   0.770
  470SOL     OW 1909   4.306   2.336   0.865
  470SOL    HW2 1910   4.226   2.374   0.828
  470SOL    HW3 1911   4.302   2.243   0.841
  470SOL    MW4 1912   4.295   2.329   0.857
  471SOL     OW 1913   4.092   2.423   0.710
  471SOL    HW2 1914   4.064   2.486   0.777
  471SOL    HW3 1915   4.010   2.393   0.670
  471SOL    MW4 1916   4.077   2.428   0.713
  472SOL     OW 1917   4.038   2.639   0.875
  472SOL    HW2 1918   4.117   2.691   0.856
  472SOL    HW3 1919   3.965   2.699   0.859
  472SOL    MW4 1920   4.039   2.654   0.870
  473SOL     OW 1921   4.259   2.813   0.788
  473SOL    HW2 1922   4.345   2.778   0.810
  473SOL    HW3 1923   4.256   2.811   0.692
  473SOL    MW4 1924   4.270   2.809   0.778
  474SOL     OW 1925   4.257   3.078   0.824
  474SOL    HW2 1926   4.281   2.985   0.827
  474SOL    HW3 1927   4.329   3.121   0.779
  474SOL    MW4 1928   4.269   3.071   0.819
  475SOL     OW 1929   4.035   3.199   0.699
  475SOL    HW2 1930   4.014   3.266   0.763
  475SOL    HW3 1931   4.096   3.141   0.743
  475SOL    MW4 1932   4.040   3.200   0.713
  476SOL     OW 1933   4.035   3.412   0.880
  476SOL    HW2 1934   4.036   3.425   0.974
  476SOL    HW3 1935   4.100   3.473   0.846
  476SOL    MW4 1936   4.043   3.422   0.888
  477SOL     OW 1937   4.240   3.553   0.708
  477SOL    HW2 1938   4.246   3.643   0.741
  477SOL    HW3 1939   4.226   3.563   0.614
  477SOL    MW4 1940   4.239   3.566   0.700
  478SOL     OW 1941   4.212   3.814   0.790
  478SOL    HW2 1942   4.229   3.831   0.883
  478SOL    HW3 1943   4.127   3.855   0.774
  478SOL    MW4 1944   4.203   3.822   0.800
  479SOL     OW 1945   4.010   4.018   0.700
  479SOL    HW2 1946   3.937   3.975   0.745
  479SOL    HW3 1947   3.996   3.998   0.607
  479SOL    MW4 1948   3.998   4.010   0.694
  480SOL     OW 1949   4.040   4.272   0.834
  480SOL    HW2 1950   4.119   4.320   0.808
  480SOL    HW3 1951   4.046   4.190   0.786
  480SOL    MW4 1952   4.051   4.268   0.824
  481SOL     OW 1953   4.287   4.380   0.700
  481SOL    HW2 1954   4.247   4.458   0.738
  481SOL    HW3 1955   4.351   4.351   0.765
  481SOL    MW4 1956   4.290   4.386   0.713
  482SOL     OW 1957   0.198   4.641   1.123
  482SOL    HW2 1958   0.272   4.695   1.148
  482SOL    HW3 1959   0.198   4.643   1.027
  482SOL    MW4 1960   0.208   4.648   1.113
  483SOL     OW 1961   4.452   0.090   1.220
  483SOL    HW2 1962   4.389   0.025   1.189
  483SOL    HW3 1963   4.538   0.052   1.200
  483SOL    MW4 1964   4.455   0.077   1.213
  484SOL     OW 1965   4.434   0.341   1.072
  484SOL    HW2 1966   4.364   0.385   1.122
  484SOL    HW3 1967   4.432   0.251   1.104
  484SOL    MW4 1968   4.424   0.335   1.083
  485SOL     OW 1969   0.182   0.438   1.209
  485SOL    HW2 1970   0.185   0.529   1.178
  485SOL    HW3 1971   0.111   0.398   1.158
  485SOL    MW4 1972   0.173   0.445   1.198
  486SOL     OW 1973   0.173   0.699   1.125
  486SOL    HW2 1974   0.254   0.746   1.145
  486SOL    HW3 1975   0.103   0.756   1.157
  486SOL    MW4 1976   0.174   0.712   1.132
  487SOL     OW 1977   4.479   0.860   1.232
  487SOL    HW2 1978   4.498   0.874   1.325
  487SOL    HW3 1979   4.396   0.812   1.232
  487SOL    MW4 1980   4.470   0.855   1.244
  488SOL     OW 1981   0.027   1.100   1.124
  488SOL    HW2 1982  -0.055   1.145   1.145
  488SOL    HW3 1983   0.014   1.010   1.154
  488SOL    MW4 1984   0.015   1.094   1.130
  489SOL     OW 1985   0.248   1.277   1.223
  489SOL    HW2 1986   0.321   1.244   1.171
  489SOL    HW3 1987   0.171   1.233   1.188
  489SOL    MW4 1988   0.248   1.267   1.211
  490SOL     OW 1989   0.239   1.549   1.120
  490SOL    HW2 1990   0.240   1.460   1.156
  490SOL    HW3 1991   0.209   1.539   1.030
  490SOL    MW4 1992   0.235   1.536   1.113
  491SOL     OW 1993   0.015   1.669   1.229
  491SOL    HW2 1994   0.019   1.759   1.198
  491SOL    HW3 1995   0.096   1.628   1.198
  491SOL    MW4 1996   0.026   1.675   1.221
  492SOL     OW 1997   0.012   1.917   1.137
  492SOL    HW2 1998  -0.072   1.951   1.171
  492SOL    HW3 1999   0.003   1.923   1.042
  492SOL    MW4 2000  -0.001   1.922   1.129
  493SOL     OW 2001   0.239   2.067   1.195
  493SOL    HW2 2002   0.215   2.154   1.164
  493SOL    HW3 2003   0.162   2.013   1.175
  493SOL    MW4 2004   0.226   2.071   1.188
  494SOL     OW 2005   0.188   2.316   1.074
  494SOL    HW2 2006   0.260   2.347   1.129
  494SOL    HW3 2007   0.110   2.355   1.113
  494SOL    MW4 2008   0.187   2.325   1.086
  495SOL     OW 2009   4.464   2.433   1.268
  495SOL    HW2 2010   4.453   2.443   1.362
  495SOL    HW3 2011   4.380   2.397   1.238
  495SOL    MW4 2012   4.451   2.429   1.276
  496SOL     OW 2013   4.489   2.696   1.148
  496SOL    HW2 2014   4.415   2.748   1.180
  496SOL    HW3 2015   4.477   2.610   1.189
  496SOL    MW4 2016   4.478   2.691   1.158
  497SOL     OW 2017   0.190   2.856   1.228
  497SOL    HW2 2018   0.180   2.845   1.323
  497SOL    HW3 2019   0.122   2.800   1.191
  497SOL    MW4 2020   0.179   2.847   1.236
  498SOL     OW 2021   0.213   3.101   1.125
  498SOL    HW2 2022   0.299   3.134   1.153
  498SOL    HW3 2023   0.207   3.015   1.165
  498SOL    MW4 2024   0.224   3.094   1.134
  499SOL     OW 2025   4.474   3.248   1.222
  499SOL    HW2 2026   4.407   3.189   1.189
  499SOL    HW3 2027   4.557   3.207   1.199
  499SOL    MW4 2028   4.476   3.235   1.215
  500SOL     OW 2029   0.003   3.495   1.089
  500SOL    HW2 2030  -0.012   3.407   1.123
  500SOL    HW3 2031   0.009   3.482   0.994
  500SOL    MW4 2032   0.002   3.481   1.081
  501SOL     OW 2033   0.231   3.585   1.241
  501SOL    HW2 2034   0.207   3.604   1.332
  501SOL    HW3 2035   0.154   3.542   1.204
  501SOL    MW4 2036   0.218   3.582   1.248
  502SOL     OW 2037   0.215   3.854   1.121
  502SOL    HW2 2038   0.129   3.890   1.143
  502SOL    HW3 2039   0.215   3.767   1.161
  502SOL    MW4 2040   0.203   3.847   1.129
  503SOL     OW 2041   4.478   3.969   1.188
  503SOL    HW2 2042   4.473   3.970   1.283
  503SOL    HW3 2043   4.400   3.922   1.160
  503SOL    MW4 2044   4.467   3.963   1.197
  504SOL     OW 2045   4.453   4.248   1.159
  504SOL    HW2 2046   4.524   4.285   1.212
  504SOL    HW3 2047   4.470   4.154   1.159
  504SOL    MW4 2048   4.464   4.240   1.166
  505SOL     OW 2049   0.211   4.383   1.227
  505SOL    HW2 2050   0.210   4.399   1.321
  505SOL    HW3 2051   0.208   4.470   1.187
  505SOL    MW4 2052   0.210   4.396   1.234
  506SOL     OW 2053   0.618   4.653   1.131
  506SOL    HW2 2054   0.693   4.707   1.154
  506SOL    HW3 2055   0.629   4.573   1.182
  506SOL    MW4 2056   0.629   4.649   1.140
  507SOL     OW 2057   0.426   0.116   1.251
  507SOL    HW2 2058   0.427   0.206   1.220
  507SOL    HW3 2059   0.499   0.074   1.207
  507SOL    MW4 2060   0.436   0.122   1.241
  508SOL     OW 2061   0.438   0.359   1.137
  508SOL    HW2 2062   0.354   0.383   1.175
  508SOL    HW3 2063   0.426   0.372   1.043
  508SOL    MW4 2064   0.425   0.364   1.129
  509SOL     OW 2065   0.643   0.509   1.273
  509SOL    HW2 2066   0.652   0.597   1.236
  509SOL    HW3 2067   0.572   0.469   1.223
  509SOL    MW4 2068   0.635   0.515   1.262
  510SOL     OW 2069   0.663   0.749   1.149
  510SOL    HW2 2070   0.574   0.777   1.167
  510SOL    HW3 2071   0.669   0.746   1.053
  510SOL    MW4 2072   0.652   0.752   1.139
  511SOL     OW 2073   0.413   0.866   1.216
  511SOL    HW2 2074   0.408   0.874   1.311
  511SOL    HW3 2075   0.447   0.950   1.186
  511SOL    MW4 2076   0.416   0.878   1.224
  512SOL     OW 2077   0.475   1.112   1.104
  512SOL    HW2 2078   0.539   1.168   1.148
  512SOL    HW3 2079   0.460   1.155   1.020
  512SOL    MW4 2080   0.481   1.125   1.099
  513SOL     OW 2081   0.656   1.288   1.182
  513SOL    HW2 2082   0.733   1.232   1.169
  513SOL    HW3 2083   0.678   1.368   1.134
  513SOL    MW4 2084   0.669   1.291   1.174
  514SOL     OW 2085   0.700   1.558   1.069
  514SOL    HW2 2086   0.786   1.580   1.103
  514SOL    HW3 2087   0.639   1.581   1.139
  514SOL    MW4 2088   0.703   1.564   1.082
  515SOL     OW 2089   0.468   1.631   1.228
  515SOL    HW2 2090   0.439   1.637   1.319
  515SOL    HW3 2091   0.389   1.604   1.180
  515SOL    MW4 2092   0.454   1.628   1.234
  516SOL     OW 2093   0.432   1.886   1.122
  516SOL    HW2 2094   0.423   1.807   1.175
  516SOL    HW3 2095   0.358   1.941   1.148
  516SOL    MW4 2096   0.421   1.883   1.132
  517SOL     OW 2097   0.678   2.034   1.205
  517SOL    HW2 2098   0.657   2.031   1.299
  517SOL    HW3 2099   0.609   1.983   1.163
  517SOL    MW4 2100   0.666   2.026   1.212
  518SOL     OW 2101   0.654   2.312   1.126
  518SOL    HW2 2102   0.567   2.341   1.154
  518SOL    HW3 2103   0.656   2.219   1.150
  518SOL    MW4 2104   0.642   2.303   1.133
  519SOL     OW 2105   0.416   2.420   1.206
  519SOL    HW2 2106   0.404   2.413   1.301
  519SOL    HW3 2107   0.410   2.513   1.188
  519SOL    MW4 2108   0.414   2.431   1.216
  520SOL     OW 2109   0.412   2.733   1.147
  520SOL    HW2 2110   0.335   2.774   1.186
  520SOL    HW3 2111   0.396   2.736   1.052
  520SOL    MW4 2112   0.400   2.739   1.139
  521SOL     OW 2113   0.635   2.867   1.209
  521SOL    HW2 2114   0.633   2.949   1.159
  521SOL    HW3 2115   0.549   2.827   1.191
  521SOL    MW4 2116   0.623   2.872   1.200
  522SOL     OW 2117   0.662   3.099   1.074
  522SOL    HW2 2118   0.745   3.116   1.119
  522SOL    HW3 2119   0.688   3.076   0.985
  522SOL    MW4 2120   0.676   3.098   1.068
  523SOL     OW 2121   0.457   3.200   1.231
  523SOL    HW2 2122   0.454   3.292   1.202
  523SOL    HW3 2123   0.524   3.160   1.176
  523SOL    MW4 2124   0.465   3.207   1.220
  524SOL     OW 2125   0.473   3.471   1.155
  524SOL    HW2 2126   0.541   3.530   1.188
  524SOL    HW3 2127   0.392   3.508   1.187
  524SOL    MW4 2128   0.472   3.484   1.163
  525SOL     OW 2129   0.700   3.621   1.250
  525SOL    HW2 2130   0.688   3.621   1.345
  525SOL    HW3 2131   0.684   3.711   1.224
  525SOL    MW4 2132   0.696   3.633   1.259
  526SOL     OW 2133   0.665   3.878   1.150
  526SOL    HW2 2134   0.588   3.906   1.201
  526SOL    HW3 2135   0.647   3.907   1.061
  526SOL    MW4 2136   0.652   3.885   1.145
  527SOL     OW 2137   0.428   3.970   1.270
  527SOL    HW2 2138   0.430   4.059   1.235
  527SOL    HW3 2139   0.358   3.926   1.222
  527SOL    MW4 2140   0.419   3.976   1.259
  528SOL     OW 2141   0.451   4.238   1.191
  528SOL    HW2 2142   0.517   4.307   1.194
  528SOL    HW3 2143   0.370   4.280   1.222
  528SOL    MW4 2144   0.449   4.253   1.195
  529SOL     OW 2145   0.635   4.411   1.260
  529SOL    HW2 2146   0.636   4.407   1.355
  529SOL    HW3 2147   0.709   4.358   1.232
  529SOL    MW4 2148   0.645   4.404   1.269
  530SOL     OW 2149   1.092   0.004   1.129
  530SOL    HW2 2150   1.086  -0.085   1.161
  530SOL    HW3 2151   1.092  -0.005   1.033
  530SOL    MW4 2152   1.092  -0.009   1.121
  531SOL     OW 2153   0.859   0.110   1.233
  531SOL    HW2 2154   0.859   0.111   1.328
  531SOL    HW3 2155   0.945   0.076   1.209
  531SOL    MW4 2156   0.870   0.106   1.242
  532SOL     OW 2157   0.892   0.392   1.181
  532SOL    HW2 2158   0.884   0.299   1.202
  532SOL    HW3 2159   0.813   0.432   1.219
  532SOL    MW4 2160   0.880   0.385   1.189
  533SOL     OW 2161   1.119   0.487   1.258
  533SOL    HW2 2162   1.123   0.485   1.354
  533SOL    HW3 2163   1.034   0.448   1.237
  533SOL    MW4 2164   1.108   0.482   1.268
  534SOL     OW 2165   1.167   0.735   1.138
  534SOL    HW2 2166   1.089   0.787   1.158
  534SOL    HW3 2167   1.148   0.649   1.175
  534SOL    MW4 2168   1.154   0.730   1.145
  535SOL     OW 2169   0.937   0.857   1.209
  535SOL    HW2 2170   0.911   0.949   1.198
  535SOL    HW3 2171   0.857   0.807   1.191
  535SOL    MW4 2172   0.923   0.863   1.205
  536SOL     OW 2173   0.896   1.128   1.127
  536SOL    HW2 2174   0.976   1.177   1.142
  536SOL    HW3 2175   0.888   1.124   1.031
  536SOL    MW4 2176   0.905   1.134   1.116
  537SOL     OW 2177   1.119   1.276   1.189
  537SOL    HW2 2178   1.095   1.264   1.281
  537SOL    HW3 2179   1.202   1.229   1.179
  537SOL    MW4 2180   1.127   1.268   1.200
  538SOL     OW 2181   1.117   1.538   1.070
  538SOL    HW2 2182   1.125   1.455   1.117
  538SOL    HW3 2183   1.115   1.513   0.978
  538SOL    MW4 2184   1.118   1.524   1.064
  539SOL     OW 2185   0.903   1.642   1.220
  539SOL    HW2 2186   0.893   1.735   1.201
  539SOL    HW3 2187   0.979   1.615   1.168
  539SOL    MW4 2188   0.912   1.651   1.211
  540SOL     OW 2189   0.892   1.894   1.110
  540SOL    HW2 2190   0.969   1.941   1.143
  540SOL    HW3 2191   0.818   1.938   1.151
  540SOL    MW4 2192   0.892   1.906   1.120
  541SOL     OW 2193   1.099   2.083   1.157
  541SOL    HW2 2194   1.104   2.084   1.253
  541SOL    HW3 2195   1.099   2.175   1.131
  541SOL    MW4 2196   1.100   2.095   1.166
  542SOL     OW 2197   1.113   2.369   1.117
  542SOL    HW2 2198   1.188   2.407   1.164
  542SOL    HW3 2199   1.037   2.417   1.150
  542SOL    MW4 2200   1.113   2.381   1.128
  543SOL     OW 2201   0.864   2.472   1.213
  543SOL    HW2 2202   0.891   2.480   1.304
  543SOL    HW3 2203   0.791   2.410   1.214
  543SOL    MW4 2204   0.858   2.465   1.225
  544SOL     OW 2205   0.840   2.722   1.108
  544SOL    HW2 2206   0.837   2.630   1.136
  544SOL    HW3 2207   0.759   2.760   1.143
  544SOL    MW4 2208   0.829   2.715   1.117
  545SOL     OW 2209   1.098   2.831   1.216
  545SOL    HW2 2210   1.090   2.858   1.308
  545SOL    HW3 2211   1.018   2.780   1.200
  545SOL    MW4 2212   1.086   2.828   1.226
  546SOL     OW 2213   1.169   3.086   1.137
  546SOL    HW2 2214   1.138   2.999   1.162
  546SOL    HW3 2215   1.146   3.094   1.045
  546SOL    MW4 2216   1.162   3.076   1.128
  547SOL     OW 2217   0.906   3.183   1.194
  547SOL    HW2 2218   0.918   3.277   1.184
  547SOL    HW3 2219   0.993   3.146   1.180
  547SOL    MW4 2220   0.919   3.190   1.191
  548SOL     OW 2221   0.920   3.473   1.177
  548SOL    HW2 2222   0.848   3.522   1.217
  548SOL    HW3 2223   0.902   3.474   1.084
  548SOL    MW4 2224   0.908   3.480   1.170
  549SOL     OW 2225   1.132   3.655   1.228
  549SOL    HW2 2226   1.217   3.612   1.220
  549SOL    HW3 2227   1.069   3.586   1.207
  549SOL    MW4 2228   1.135   3.640   1.224
  550SOL     OW 2229   1.151   3.922   1.111
  550SOL    HW2 2230   1.078   3.963   1.156
  550SOL    HW3 2231   1.139   3.828   1.126
  550SOL    MW4 2232   1.140   3.915   1.119
  551SOL     OW 2233   0.917   4.024   1.263
  551SOL    HW2 2234   0.931   4.009   1.356
  551SOL    HW3 2235   0.841   3.969   1.242
  551SOL    MW4 2236   0.909   4.015   1.273
  552SOL     OW 2237   0.857   4.284   1.164
  552SOL    HW2 2238   0.869   4.196   1.198
  552SOL    HW3 2239   0.865   4.275   1.069
  552SOL    MW4 2240   0.859   4.271   1.156
  553SOL     OW 2241   1.096   4.405   1.239
  553SOL    HW2 2242   1.093   4.410   1.335
  553SOL    HW3 2243   1.010   4.369   1.215
  553SOL    MW4 2244   1.084   4.401   1.249
  554SOL     OW 2245   1.582   4.628   1.115
  554SOL    HW2 2246   1.638   4.680   1.173
  554SOL    HW3 2247   1.594   4.538   1.145
  554SOL    MW4 2248   1.591   4.623   1.127
  555SOL     OW 2249   1.358   0.058   1.259
  555SOL    HW2 2250   1.429   0.011   1.216
  555SOL    HW3 2251   1.279   0.030   1.214
  555SOL    MW4 2252   1.357   0.048   1.247
  556SOL     OW 2253   1.364   0.335   1.179
  556SOL    HW2 2254   1.373   0.242   1.204
  556SOL    HW3 2255   1.287   0.365   1.228
  556SOL    MW4 2256   1.355   0.327   1.189
  557SOL     OW 2257   1.578   0.494   1.274
  557SOL    HW2 2258   1.585   0.578   1.229
  557SOL    HW3 2259   1.503   0.451   1.232
  557SOL    MW4 2260   1.569   0.499   1.262
  558SOL     OW 2261   1.612   0.747   1.175
  558SOL    HW2 2262   1.684   0.804   1.203
  558SOL    HW3 2263   1.613   0.754   1.080
  558SOL    MW4 2264   1.622   0.756   1.166
  559SOL     OW 2265   1.382   0.891   1.221
  559SOL    HW2 2266   1.467   0.849   1.209
  559SOL    HW3 2267   1.318   0.825   1.194
  559SOL    MW4 2268   1.384   0.877   1.216
  560SOL     OW 2269   1.356   1.153   1.106
  560SOL    HW2 2270   1.375   1.070   1.150
  560SOL    HW3 2271   1.366   1.134   1.013
  560SOL    MW4 2272   1.360   1.140   1.100
  561SOL     OW 2273   1.559   1.305   1.206
  561SOL    HW2 2274   1.629   1.251   1.168
  561SOL    HW3 2275   1.478   1.266   1.175
  561SOL    MW4 2276   1.558   1.293   1.197
  562SOL     OW 2277   1.617   1.551   1.079
  562SOL    HW2 2278   1.682   1.577   1.144
  562SOL    HW3 2279   1.593   1.461   1.103
  562SOL    MW4 2280   1.622   1.543   1.091
  563SOL     OW 2281   1.350   1.657   1.184
  563SOL    HW2 2282   1.420   1.616   1.133
  563SOL    HW3 2283   1.269   1.629   1.140
  563SOL    MW4 2284   1.348   1.648   1.171
  564SOL     OW 2285   1.338   1.932   1.079
  564SOL    HW2 2286   1.344   1.850   1.129
  564SOL    HW3 2287   1.272   1.983   1.125
  564SOL    MW4 2288   1.330   1.928   1.092
  565SOL     OW 2289   1.557   2.072   1.212
  565SOL    HW2 2290   1.584   2.157   1.178
  565SOL    HW3 2291   1.476   2.052   1.166
  565SOL    MW4 2292   1.550   2.081   1.202
  566SOL     OW 2293   1.608   2.325   1.116
  566SOL    HW2 2294   1.532   2.371   1.152
  566SOL    HW3 2295   1.600   2.336   1.021
  566SOL    MW4 2296   1.597   2.333   1.108
  567SOL     OW 2297   1.352   2.449   1.221
  567SOL    HW2 2298   1.340   2.438   1.316
  567SOL    HW3 2299   1.348   2.543   1.207
  567SOL    MW4 2300   1.350   2.460   1.232
  568SOL     OW 2301   1.346   2.713   1.166
  568SOL    HW2 2302   1.417   2.763   1.205
  568SOL    HW3 2303   1.266   2.754   1.199
  568SOL    MW4 2304   1.345   2.725   1.175
  569SOL     OW 2305   1.558   2.856   1.276
  569SOL    HW2 2306   1.635   2.801   1.262
  569SOL    HW3 2307   1.572   2.932   1.220
  569SOL    MW4 2308   1.570   2.859   1.267
  570SOL     OW 2309   1.563   3.088   1.122
  570SOL    HW2 2310   1.650   3.126   1.130
  570SOL    HW3 2311   1.506   3.145   1.173
  570SOL    MW4 2312   1.567   3.100   1.130
  571SOL     OW 2313   1.365   3.257   1.273
  571SOL    HW2 2314   1.363   3.229   1.364
  571SOL    HW3 2315   1.302   3.200   1.229
  571SOL    MW4 2316   1.357   3.245   1.279
  572SOL     OW 2317   1.360   3.519   1.177
  572SOL    HW2 2318   1.342   3.435   1.219
  572SOL    HW3 2319   1.367   3.498   1.083
  572SOL    MW4 2320   1.358   3.505   1.170
  573SOL     OW 2321   1.628   3.594   1.244
  573SOL    HW2 2322   1.639   3.680   1.204
  573SOL    HW3 2323   1.540   3.567   1.219
  573SOL    MW4 2324   1.618   3.602   1.236
  574SOL     OW 2325   1.591   3.864   1.141
  574SOL    HW2 2326   1.524   3.909   1.193
  574SOL    HW3 2327   1.569   3.886   1.050
  574SOL    MW4 2328   1.579   3.873   1.136
  575SOL     OW 2329   1.387   4.017   1.270
  575SOL    HW2 2330   1.365   4.109   1.259
  575SOL    HW3 2331   1.315   3.969   1.228
  575SOL    MW4 2332   1.375   4.023   1.263
  576SOL     OW 2333   1.326   4.269   1.163
  576SOL    HW2 2334   1.241   4.309   1.181
  576SOL    HW3 2335   1.337   4.277   1.069
  576SOL    MW4 2336   1.316   4.275   1.153
  577SOL     OW 2337   1.574   4.382   1.257
  577SOL    HW2 2338   1.582   4.389   1.352
  577SOL    HW3 2339   1.485   4.352   1.242
  577SOL    MW4 2340   1.564   4.379   1.268
  578SOL     OW 2341   1.996   4.643   1.113
  578SOL    HW2 2342   2.001   4.548   1.123
  578SOL    HW3 2343   2.004   4.657   1.019
  578SOL    MW4 2344   1.998   4.632   1.102
  579SOL     OW 2345   1.773   0.101   1.233
  579SOL    HW2 2346   1.779   0.194   1.209
  579SOL    HW3 2347   1.859   0.065   1.214
  579SOL    MW4 2348   1.785   0.109   1.228
  580SOL     OW 2349   1.808   0.378   1.165
  580SOL    HW2 2350   1.728   0.419   1.198
  580SOL    HW3 2351   1.792   0.364   1.072
  580SOL    MW4 2352   1.795   0.382   1.157
  581SOL     OW 2353   2.005   0.527   1.268
  581SOL    HW2 2354   2.012   0.523   1.363
  581SOL    HW3 2355   1.936   0.465   1.246
  581SOL    MW4 2356   1.997   0.518   1.277
  582SOL     OW 2357   2.054   0.749   1.129
  582SOL    HW2 2358   2.042   0.664   1.171
  582SOL    HW3 2359   2.039   0.732   1.036
  582SOL    MW4 2360   2.050   0.736   1.123
  583SOL     OW 2361   1.835   0.906   1.212
  583SOL    HW2 2362   1.834   0.914   1.308
  583SOL    HW3 2363   1.915   0.858   1.194
  583SOL    MW4 2364   1.845   0.901   1.223
  584SOL     OW 2365   1.776   1.149   1.105
  584SOL    HW2 2366   1.803   1.065   1.143
  584SOL    HW3 2367   1.775   1.133   1.011
  584SOL    MW4 2368   1.779   1.135   1.098
  585SOL     OW 2369   1.974   1.307   1.237
  585SOL    HW2 2370   2.053   1.258   1.214
  585SOL    HW3 2371   1.903   1.259   1.194
  585SOL    MW4 2372   1.975   1.294   1.228
  586SOL     OW 2373   2.005   1.533   1.092
  586SOL    HW2 2374   1.997   1.455   1.146
  586SOL    HW3 2375   2.000   1.502   1.002
  586SOL    MW4 2376   2.003   1.519   1.087
  587SOL     OW 2377   1.802   1.668   1.232
  587SOL    HW2 2378   1.787   1.762   1.220
  587SOL    HW3 2379   1.878   1.648   1.179
  587SOL    MW4 2380   1.810   1.678   1.223
  588SOL     OW 2381   1.795   1.967   1.150
  588SOL    HW2 2382   1.720   2.007   1.193
  588SOL    HW3 2383   1.765   1.948   1.061
  588SOL    MW4 2384   1.781   1.969   1.144
  589SOL     OW 2385   2.040   2.068   1.253
  589SOL    HW2 2386   2.027   2.053   1.346
  589SOL    HW3 2387   1.968   2.021   1.210
  589SOL    MW4 2388   2.029   2.060   1.259
  590SOL     OW 2389   2.083   2.312   1.144
  590SOL    HW2 2390   2.161   2.344   1.190
  590SOL    HW3 2391   2.065   2.227   1.184
  590SOL    MW4 2392   2.091   2.305   1.155
  591SOL     OW 2393   1.849   2.444   1.219
  591SOL    HW2 2394   1.929   2.403   1.185
  591SOL    HW3 2395   1.778   2.391   1.183
  591SOL    MW4 2396   1.850   2.432   1.210
  592SOL     OW 2397   1.802   2.719   1.204
  592SOL    HW2 2398   1.820   2.626   1.221
  592SOL    HW3 2399   1.813   2.729   1.110
  592SOL    MW4 2400   1.805   2.708   1.194
  593SOL     OW 2401   2.051   2.814   1.281
  593SOL    HW2 2402   2.070   2.907   1.265
  593SOL    HW3 2403   1.962   2.803   1.250
  593SOL    MW4 2404   2.042   2.825   1.275
  594SOL     OW 2405   2.029   3.091   1.141
  594SOL    HW2 2406   1.940   3.121   1.161
  594SOL    HW3 2407   2.033   3.091   1.046
  594SOL    MW4 2408   2.018   3.095   1.132
  595SOL     OW 2409   1.791   3.210   1.218
  595SOL    HW2 2410   1.812   3.204   1.311
  595SOL    HW3 2411   1.803   3.302   1.197
  595SOL    MW4 2412   1.796   3.221   1.227
  596SOL     OW 2413   1.835   3.479   1.102
  596SOL    HW2 2414   1.911   3.514   1.148
  596SOL    HW3 2415   1.760   3.519   1.145
  596SOL    MW4 2416   1.835   3.489   1.113
  597SOL     OW 2417   2.050   3.604   1.239
  597SOL    HW2 2418   2.064   3.589   1.333
  597SOL    HW3 2419   2.118   3.554   1.196
  597SOL    MW4 2420   2.061   3.596   1.246
  598SOL     OW 2421   2.084   3.871   1.122
  598SOL    HW2 2422   2.010   3.926   1.148
  598SOL    HW3 2423   2.064   3.784   1.158
  598SOL    MW4 2424   2.072   3.867   1.130
  599SOL     OW 2425   1.831   4.004   1.187
  599SOL    HW2 2426   1.827   3.993   1.282
  599SOL    HW3 2427   1.752   3.962   1.155
  599SOL    MW4 2428   1.820   3.997   1.195
  600SOL     OW 2429   1.807   4.265   1.136
  600SOL    HW2 2430   1.803   4.174   1.168
  600SOL    HW3 2431   1.729   4.306   1.173
  600SOL    MW4 2432   1.796   4.258   1.145
  601SOL     OW 2433   2.040   4.383   1.190
  601SOL    HW2 2434   2.031   4.395   1.285
  601SOL    HW3 2435   1.970   4.322   1.167
  601SOL    MW4 2436   2.029   4.376   1.200
  602SOL     OW 2437   2.454   4.647   1.105
  602SOL    HW2 2438   2.520   4.690   1.160
  602SOL    HW3 2439   2.373   4.693   1.125
  602SOL    MW4 2440   2.452   4.659   1.115
  603SOL     OW 2441   2.228   0.110   1.210
  603SOL    HW2 2442   2.222   0.205   1.218
  603SOL    HW3 2443   2.154   0.086   1.155
  603SOL    MW4 2444   2.218   0.119   1.204
  604SOL     OW 2445   2.203   0.389   1.137
  604SOL    HW2 2446   2.129   0.444   1.161
  604SOL    HW3 2447   2.209   0.396   1.042
  604SOL    MW4 2448   2.194   0.397   1.128
  605SOL     OW 2449   2.443   0.505   1.205
  605SOL    HW2 2450   2.448   0.516   1.300
  605SOL    HW3 2451   2.362   0.456   1.190
  605SOL    MW4 2452   2.433   0.500   1.215
  606SOL     OW 2453   2.503   0.753   1.115
  606SOL    HW2 2454   2.474   0.667   1.146
  606SOL    HW3 2455   2.503   0.746   1.020
  606SOL    MW4 2456   2.499   0.741   1.107
  607SOL     OW 2457   2.251   0.926   1.214
  607SOL    HW2 2458   2.337   0.885   1.204
  607SOL    HW3 2459   2.188   0.858   1.190
  607SOL    MW4 2460   2.254   0.912   1.209
  608SOL     OW 2461   2.211   1.187   1.173
  608SOL    HW2 2462   2.296   1.223   1.196
  608SOL    HW3 2463   2.225   1.092   1.167
  608SOL    MW4 2464   2.224   1.179   1.175
  609SOL     OW 2465   2.452   1.291   1.255
  609SOL    HW2 2466   2.528   1.241   1.224
  609SOL    HW3 2467   2.457   1.374   1.208
  609SOL    MW4 2468   2.463   1.295   1.245
  610SOL     OW 2469   2.476   1.549   1.135
  610SOL    HW2 2470   2.394   1.590   1.160
  610SOL    HW3 2471   2.472   1.543   1.040
  610SOL    MW4 2472   2.465   1.553   1.126
  611SOL     OW 2473   2.226   1.652   1.230
  611SOL    HW2 2474   2.232   1.743   1.200
  611SOL    HW3 2475   2.153   1.616   1.179
  611SOL    MW4 2476   2.217   1.659   1.219
  612SOL     OW 2477   2.236   1.893   1.133
  612SOL    HW2 2478   2.175   1.957   1.170
  612SOL    HW3 2479   2.213   1.889   1.040
  612SOL    MW4 2480   2.225   1.901   1.125
  613SOL     OW 2481   2.467   2.031   1.223
  613SOL    HW2 2482   2.551   2.009   1.181
  613SOL    HW3 2483   2.401   1.987   1.170
  613SOL    MW4 2484   2.470   2.023   1.211
  614SOL     OW 2485   2.512   2.294   1.149
  614SOL    HW2 2486   2.495   2.206   1.184
  614SOL    HW3 2487   2.497   2.285   1.055
  614SOL    MW4 2488   2.508   2.281   1.141
  615SOL     OW 2489   2.297   2.473   1.235
  615SOL    HW2 2490   2.277   2.462   1.328
  615SOL    HW3 2491   2.369   2.413   1.219
  615SOL    MW4 2492   2.304   2.464   1.245
  616SOL     OW 2493   2.205   2.681   1.085
  616SOL    HW2 2494   2.240   2.610   1.140
  616SOL    HW3 2495   2.149   2.731   1.144
  616SOL    MW4 2496   2.203   2.678   1.100
  617SOL     OW 2497   2.448   2.813   1.178
  617SOL    HW2 2498   2.437   2.794   1.272
  617SOL    HW3 2499   2.372   2.771   1.137
  617SOL    MW4 2500   2.436   2.805   1.185
  618SOL     OW 2501   2.476   3.068   1.070
  618SOL    HW2 2502   2.407   3.115   1.116
  618SOL    HW3 2503   2.473   2.979   1.106
  618SOL    MW4 2504   2.466   3.062   1.080
  619SOL     OW 2505   2.273   3.198   1.213
  619SOL    HW2 2506   2.273   3.294   1.203
  619SOL    HW3 2507   2.185   3.172   1.188
  619SOL    MW4 2508   2.262   3.207   1.208
  620SOL     OW 2509   2.254   3.455   1.122
  620SOL    HW2 2510   2.334   3.504   1.143
  620SOL    HW3 2511   2.259   3.441   1.027
  620SOL    MW4 2512   2.265   3.460   1.112
  621SOL     OW 2513   2.497   3.611   1.206
  621SOL    HW2 2514   2.496   3.599   1.301
  621SOL    HW3 2515   2.493   3.706   1.194
  621SOL    MW4 2516   2.497   3.622   1.217
  622SOL     OW 2517   2.524   3.887   1.105
  622SOL    HW2 2518   2.441   3.914   1.143
  622SOL    HW3 2519   2.506   3.873   1.013
  622SOL    MW4 2520   2.511   3.889   1.098
  623SOL     OW 2521   2.293   3.994   1.239
  623SOL    HW2 2522   2.293   4.079   1.195
  623SOL    HW3 2523   2.220   3.947   1.199
  623SOL    MW4 2524   2.284   3.999   1.228
  624SOL     OW 2525   2.253   4.238   1.112
  624SOL    HW2 2526   2.177   4.276   1.155
  624SOL    HW3 2527   2.233   4.244   1.018
  624SOL    MW4 2528   2.240   4.244   1.105
  625SOL     OW 2529   2.477   4.394   1.212
  625SOL    HW2 2530   2.403   4.343   1.178
  625SOL    HW3 2531   2.461   4.483   1.181
  625SOL    MW4 2532   2.465   4.399   1.203
  626SOL     OW 2533   2.931   0.040   1.134
  626SOL    HW2 2534   2.941  -0.053   1.155
  626SOL    HW3 2535   2.944   0.044   1.039
  626SOL    MW4 2536   2.934   0.028   1.124
  627SOL     OW 2537   2.679   0.088   1.242
  627SOL    HW2 2538   2.671   0.072   1.336
  627SOL    HW3 2539   2.773   0.079   1.223
  627SOL    MW4 2540   2.690   0.085   1.251
  628SOL     OW 2541   2.700   0.367   1.169
  628SOL    HW2 2542   2.689   0.278   1.202
  628SOL    HW3 2543   2.616   0.410   1.185
  628SOL    MW4 2544   2.688   0.361   1.175
  629SOL     OW 2545   2.933   0.504   1.213
  629SOL    HW2 2546   2.930   0.579   1.153
  629SOL    HW3 2547   2.852   0.457   1.195
  629SOL    MW4 2548   2.922   0.508   1.203
  630SOL     OW 2549   2.881   0.788   1.126
  630SOL    HW2 2550   2.969   0.822   1.145
  630SOL    HW3 2551   2.822   0.845   1.176
  630SOL    MW4 2552   2.885   0.800   1.135
  631SOL     OW 2553   2.670   0.919   1.265
  631SOL    HW2 2554   2.657   0.999   1.214
  631SOL    HW3 2555   2.611   0.855   1.225
  631SOL    MW4 2556   2.661   0.921   1.253
  632SOL     OW 2557   2.663   1.171   1.131
  632SOL    HW2 2558   2.751   1.203   1.147
  632SOL    HW3 2559   2.664   1.141   1.040
  632SOL    MW4 2560   2.675   1.171   1.121
  633SOL     OW 2561   2.899   1.298   1.224
  633SOL    HW2 2562   2.903   1.308   1.319
  633SOL    HW3 2563   2.919   1.386   1.190
  633SOL    MW4 2564   2.902   1.311   1.232
  634SOL     OW 2565   2.917   1.538   1.091
  634SOL    HW2 2566   2.991   1.598   1.102
  634SOL    HW3 2567   2.890   1.550   1.000
  634SOL    MW4 2568   2.923   1.548   1.080
  635SOL     OW 2569   2.705   1.672   1.212
  635SOL    HW2 2570   2.780   1.618   1.187
  635SOL    HW3 2571   2.629   1.622   1.182
  635SOL    MW4 2572   2.705   1.658   1.205
  636SOL     OW 2573   2.704   1.920   1.089
  636SOL    HW2 2574   2.777   1.972   1.122
  636SOL    HW3 2575   2.702   1.843   1.145
  636SOL    MW4 2576   2.713   1.917   1.100
  637SOL     OW 2577   2.928   2.061   1.168
  637SOL    HW2 2578   2.935   2.062   1.264
  637SOL    HW3 2579   2.929   2.153   1.143
  637SOL    MW4 2580   2.929   2.073   1.178
  638SOL     OW 2581   2.955   2.328   1.097
  638SOL    HW2 2582   3.031   2.364   1.143
  638SOL    HW3 2583   2.880   2.372   1.137
  638SOL    MW4 2584   2.955   2.338   1.108
  639SOL     OW 2585   2.750   2.428   1.264
  639SOL    HW2 2586   2.737   2.426   1.358
  639SOL    HW3 2587   2.681   2.372   1.228
  639SOL    MW4 2588   2.739   2.420   1.271
  640SOL     OW 2589   2.663   2.648   1.098
  640SOL    HW2 2590   2.674   2.588   1.171
  640SOL    HW3 2591   2.592   2.706   1.125
  640SOL    MW4 2592   2.655   2.648   1.111
  641SOL     OW 2593   2.878   2.845   1.195
  641SOL    HW2 2594   2.849   2.813   1.281
  641SOL    HW3 2595   2.818   2.803   1.133
  641SOL    MW4 2596   2.866   2.835   1.198
  642SOL     OW 2597   2.918   3.113   1.152
  642SOL    HW2 2598   2.899   3.022   1.175
  642SOL    HW3 2599   2.901   3.118   1.058
  642SOL    MW4 2600   2.913   3.101   1.143
  643SOL     OW 2601   2.675   3.216   1.241
  643SOL    HW2 2602   2.762   3.188   1.213
  643SOL    HW3 2603   2.616   3.153   1.201
  643SOL    MW4 2604   2.679   3.204   1.232
  644SOL     OW 2605   2.704   3.443   1.081
  644SOL    HW2 2606   2.697   3.367   1.139
  644SOL    HW3 2607   2.637   3.504   1.113
  644SOL    MW4 2608   2.694   3.441   1.093
  645SOL     OW 2609   2.937   3.559   1.230
  645SOL    HW2 2610   3.016   3.520   1.193
  645SOL    HW3 2611   2.864   3.514   1.187
  645SOL    MW4 2612   2.938   3.548   1.220
  646SOL     OW 2613   2.927   3.840   1.114
  646SOL    HW2 2614   3.000   3.878   1.163
  646SOL    HW3 2615   2.907   3.758   1.161
  646SOL    MW4 2616   2.934   3.834   1.127
  647SOL     OW 2617   2.741   4.043   1.152
  647SOL    HW2 2618   2.797   3.971   1.124
  647SOL    HW3 2619   2.652   4.011   1.139
  647SOL    MW4 2620   2.736   4.029   1.147
  648SOL     OW 2621   2.690   4.302   1.064
  648SOL    HW2 2622   2.721   4.218   1.099
  648SOL    HW3 2623   2.626   4.332   1.128
  648SOL    MW4 2624   2.686   4.295   1.077
  649SOL     OW 2625   2.911   4.433   1.200
  649SOL    HW2 2626   2.983   4.376   1.174
  649SOL    HW3 2627   2.836   4.401   1.149
  649SOL    MW4 2628   2.910   4.421   1.190
  650SOL     OW 2629   3.390   4.665   1.145
  650SOL    HW2 2630   3.463   4.719   1.175
  650SOL    HW3 2631   3.315   4.696   1.196
  650SOL    MW4 2632   3.390   4.676   1.155
  651SOL     OW 2633   3.173   0.144   1.239
  651SOL    HW2 2634   3.151   0.137   1.332
  651SOL    HW3 2635   3.093   0.119   1.193
  651SOL    MW4 2636   3.160   0.140   1.245
  652SOL     OW 2637   3.166   0.387   1.121
  652SOL    HW2 2638   3.179   0.298   1.154
  652SOL    HW3 2639   3.087   0.418   1.166
  652SOL    MW4 2640   3.157   0.379   1.132
  653SOL     OW 2641   3.374   0.540   1.226
  653SOL    HW2 2642   3.372   0.632   1.199
  653SOL    HW3 2643   3.290   0.505   1.196
  653SOL    MW4 2644   3.363   0.548   1.218
  654SOL     OW 2645   3.360   0.783   1.078
  654SOL    HW2 2646   3.274   0.812   1.109
  654SOL    HW3 2647   3.362   0.810   0.986
  654SOL    MW4 2648   3.349   0.790   1.070
  655SOL     OW 2649   3.131   0.879   1.188
  655SOL    HW2 2650   3.134   0.878   1.283
  655SOL    HW3 2651   3.138   0.971   1.164
  655SOL    MW4 2652   3.132   0.891   1.197
  656SOL     OW 2653   3.116   1.146   1.109
  656SOL    HW2 2654   3.187   1.192   1.154
  656SOL    HW3 2655   3.036   1.183   1.145
  656SOL    MW4 2656   3.115   1.157   1.120
  657SOL     OW 2657   3.335   1.282   1.197
  657SOL    HW2 2658   3.371   1.277   1.286
  657SOL    HW3 2659   3.346   1.374   1.171
  657SOL    MW4 2660   3.341   1.294   1.205
  658SOL     OW 2661   3.355   1.526   1.065
  658SOL    HW2 2662   3.427   1.575   1.104
  658SOL    HW3 2663   3.276   1.573   1.095
  658SOL    MW4 2664   3.354   1.539   1.074
  659SOL     OW 2665   3.148   1.697   1.136
  659SOL    HW2 2666   3.151   1.699   1.232
  659SOL    HW3 2667   3.149   1.790   1.110
  659SOL    MW4 2668   3.149   1.710   1.145
  660SOL     OW 2669   3.175   1.967   1.067
  660SOL    HW2 2670   3.245   2.011   1.116
  660SOL    HW3 2671   3.095   2.009   1.098
  660SOL    MW4 2672   3.174   1.978   1.078
  661SOL     OW 2673   3.374   2.074   1.219
  661SOL    HW2 2674   3.452   2.033   1.182
  661SOL    HW3 2675   3.378   2.165   1.190
  661SOL    MW4 2676   3.385   2.080   1.211
  662SOL     OW 2677   3.388   2.344   1.126
  662SOL    HW2 2678   3.471   2.387   1.148
  662SOL    HW3 2679   3.323   2.392   1.176
  662SOL    MW4 2680   3.391   2.356   1.135
  663SOL     OW 2681   3.166   2.454   1.238
  663SOL    HW2 2682   3.174   2.443   1.333
  663SOL    HW3 2683   3.164   2.549   1.226
  663SOL    MW4 2684   3.167   2.465   1.249
  664SOL     OW 2685   3.139   2.711   1.149
  664SOL    HW2 2686   3.056   2.755   1.166
  664SOL    HW3 2687   3.136   2.690   1.056
  664SOL    MW4 2688   3.128   2.714   1.139
  665SOL     OW 2689   3.349   2.858   1.261
  665SOL    HW2 2690   3.354   2.939   1.210
  665SOL    HW3 2691   3.273   2.812   1.225
  665SOL    MW4 2692   3.340   2.863   1.249
  666SOL     OW 2693   3.368   3.078   1.101
  666SOL    HW2 2694   3.443   3.127   1.135
  666SOL    HW3 2695   3.292   3.121   1.139
  666SOL    MW4 2696   3.368   3.090   1.110
  667SOL     OW 2697   3.162   3.216   1.221
  667SOL    HW2 2698   3.169   3.301   1.177
  667SOL    HW3 2699   3.079   3.180   1.190
  667SOL    MW4 2700   3.152   3.222   1.211
  668SOL     OW 2701   3.187   3.445   1.103
  668SOL    HW2 2702   3.254   3.510   1.124
  668SOL    HW3 2703   3.158   3.468   1.015
  668SOL    MW4 2704   3.192   3.456   1.094
  669SOL     OW 2705   3.381   3.623   1.191
  669SOL    HW2 2706   3.386   3.616   1.286
  669SOL    HW3 2707   3.445   3.560   1.159
  669SOL    MW4 2708   3.390   3.614   1.199
  670SOL     OW 2709   3.350   3.885   1.075
  670SOL    HW2 2710   3.279   3.910   1.134
  670SOL    HW3 2711   3.376   3.798   1.105
  670SOL    MW4 2712   3.344   3.877   1.087
  671SOL     OW 2713   3.154   3.973   1.234
  671SOL    HW2 2714   3.157   3.975   1.330
  671SOL    HW3 2715   3.136   4.064   1.209
  671SOL    MW4 2716   3.152   3.985   1.243
  672SOL     OW 2717   3.098   4.231   1.165
  672SOL    HW2 2718   3.176   4.281   1.190
  672SOL    HW3 2719   3.096   4.236   1.069
  672SOL    MW4 2720   3.108   4.238   1.155
  673SOL     OW 2721   3.346   4.383   1.222
  673SOL    HW2 2722   3.422   4.333   1.193
  673SOL    HW3 2723   3.366   4.473   1.197
  673SOL    MW4 2724   3.358   4.388   1.215
  674SOL     OW 2725   3.790   4.629   1.151
  674SOL    HW2 2726   3.788   4.544   1.195
  674SOL    HW3 2727   3.801   4.608   1.058
  674SOL    MW4 2728   3.791   4.615   1.144
  675SOL     OW 2729   3.600   0.146   1.220
  675SOL    HW2 2730   3.615   0.228   1.173
  675SOL    HW3 2731   3.666   0.086   1.186
  675SOL    MW4 2732   3.610   0.149   1.209
  676SOL     OW 2733   3.572   0.404   1.124
  676SOL    HW2 2734   3.644   0.452   1.164
  676SOL    HW3 2735   3.493   0.443   1.162
  676SOL    MW4 2736   3.571   0.415   1.135
  677SOL     OW 2737   3.784   0.544   1.252
  677SOL    HW2 2738   3.857   0.492   1.219
  677SOL    HW3 2739   3.792   0.628   1.207
  677SOL    MW4 2740   3.795   0.548   1.242
  678SOL     OW 2741   3.799   0.798   1.126
  678SOL    HW2 2742   3.870   0.851   1.160
  678SOL    HW3 2743   3.719   0.839   1.160
  678SOL    MW4 2744   3.798   0.810   1.135
  679SOL     OW 2745   3.569   0.936   1.218
  679SOL    HW2 2746   3.584   1.010   1.160
  679SOL    HW3 2747   3.489   0.895   1.185
  679SOL    MW4 2748   3.561   0.940   1.206
  680SOL     OW 2749   3.571   1.168   1.076
  680SOL    HW2 2750   3.649   1.206   1.115
  680SOL    HW3 2751   3.498   1.207   1.124
  680SOL    MW4 2752   3.572   1.178   1.087
  681SOL     OW 2753   3.790   1.314   1.195
  681SOL    HW2 2754   3.807   1.308   1.289
  681SOL    HW3 2755   3.799   1.407   1.175
  681SOL    MW4 2756   3.793   1.325   1.205
  682SOL     OW 2757   3.792   1.555   1.085
  682SOL    HW2 2758   3.866   1.597   1.129
  682SOL    HW3 2759   3.821   1.544   0.994
  682SOL    MW4 2760   3.806   1.559   1.079
  683SOL     OW 2761   3.564   1.666   1.200
  683SOL    HW2 2762   3.573   1.755   1.167
  683SOL    HW3 2763   3.634   1.617   1.157
  683SOL    MW4 2764   3.574   1.671   1.190
  684SOL     OW 2765   3.595   1.939   1.115
  684SOL    HW2 2766   3.682   1.955   1.150
  684SOL    HW3 2767   3.604   1.953   1.020
  684SOL    MW4 2768   3.607   1.943   1.107
  685SOL     OW 2769   3.841   2.029   1.228
  685SOL    HW2 2770   3.826   2.023   1.322
  685SOL    HW3 2771   3.915   1.970   1.212
  685SOL    MW4 2772   3.849   2.020   1.238
  686SOL     OW 2773   3.824   2.278   1.107
  686SOL    HW2 2774   3.879   2.336   1.161
  686SOL    HW3 2775   3.837   2.191   1.145
  686SOL    MW4 2776   3.833   2.274   1.119
  687SOL     OW 2777   3.626   2.486   1.194
  687SOL    HW2 2778   3.618   2.472   1.288
  687SOL    HW3 2779   3.700   2.432   1.167
  687SOL    MW4 2780   3.635   2.477   1.203
  688SOL     OW 2781   3.563   2.745   1.135
  688SOL    HW2 2782   3.592   2.662   1.172
  688SOL    HW3 2783   3.486   2.769   1.187
  688SOL    MW4 2784   3.557   2.737   1.147
  689SOL     OW 2785   3.820   2.840   1.218
  689SOL    HW2 2786   3.819   2.849   1.313
  689SOL    HW3 2787   3.728   2.831   1.193
  689SOL    MW4 2788   3.808   2.840   1.227
  690SOL     OW 2789   3.831   3.107   1.098
  690SOL    HW2 2790   3.820   3.012   1.110
  690SOL    HW3 2791   3.834   3.119   1.003
  690SOL    MW4 2792   3.830   3.096   1.087
  691SOL     OW 2793   3.588   3.226   1.213
  691SOL    HW2 2794   3.580   3.305   1.159
  691SOL    HW3 2795   3.673   3.190   1.188
  691SOL    MW4 2796   3.598   3.232   1.202
  692SOL     OW 2797   3.562   3.446   1.072
  692SOL    HW2 2798   3.636   3.493   1.111
  692SOL    HW3 2799   3.564   3.470   0.980
  692SOL    MW4 2800   3.572   3.455   1.065
  693SOL     OW 2801   3.771   3.588   1.201
  693SOL    HW2 2802   3.759   3.596   1.295
  693SOL    HW3 2803   3.789   3.677   1.172
  693SOL    MW4 2804   3.772   3.601   1.209
  694SOL     OW 2805   3.819   3.843   1.102
  694SOL    HW2 2806   3.740   3.885   1.135
  694SOL    HW3 2807   3.804   3.832   1.008
  694SOL    MW4 2808   3.807   3.847   1.094
  695SOL     OW 2809   3.591   3.972   1.201
  695SOL    HW2 2810   3.570   3.970   1.295
  695SOL    HW3 2811   3.510   3.943   1.158
  695SOL    MW4 2812   3.577   3.968   1.208
  696SOL     OW 2813   3.584   4.224   1.146
  696SOL    HW2 2814   3.577   4.132   1.170
  696SOL    HW3 2815   3.621   4.223   1.058
  696SOL    MW4 2816   3.588   4.212   1.138
  697SOL     OW 2817   3.784   4.380   1.238
  697SOL    HW2 2818   3.779   4.399   1.332
  697SOL    HW3 2819   3.723   4.307   1.225
  697SOL    MW4 2820   3.775   4.373   1.249
  698SOL     OW 2821   4.234   4.597   1.111
  698SOL    HW2 2822   4.245   4.529   1.176
  698SOL    HW3 2823   4.168   4.655   1.147
  698SOL    MW4 2824   4.227   4.596   1.124
  699SOL     OW 2825   4.011   0.101   1.226
  699SOL    HW2 2826   4.006   0.101   1.322
  699SOL    HW3 2827   3.928   0.062   1.197
  699SOL    MW4 2828   3.999   0.096   1.235
  700SOL     OW 2829   3.980   0.371   1.166
  700SOL    HW2 2830   3.995   0.283   1.201
  700SOL    HW3 2831   4.000   0.363   1.073
  700SOL    MW4 2832   3.984   0.358   1.158
  701SOL     OW 2833   4.237   0.456   1.218
  701SOL    HW2 2834   4.239   0.447   1.313
  701SOL    HW3 2835   4.146   0.433   1.194
  701SOL    MW4 2836   4.225   0.451   1.227
  702SOL     OW 2837   4.206   0.740   1.175
  702SOL    HW2 2838   4.207   0.646   1.193
  702SOL    HW3 2839   4.211   0.746   1.080
  702SOL    MW4 2840   4.207   0.729   1.165
  703SOL     OW 2841   4.014   0.929   1.242
  703SOL    HW2 2842   4.017   0.912   1.336
  703SOL    HW3 2843   4.081   0.871   1.205
  703SOL    MW4 2844   4.023   0.919   1.250
  704SOL     OW 2845   4.030   1.177   1.108
  704SOL    HW2 2846   4.050   1.096   1.155
  704SOL    HW3 2847   3.957   1.216   1.156
  704SOL    MW4 2848   4.023   1.171   1.120
  705SOL     OW 2849   4.302   1.245   1.191
  705SOL    HW2 2850   4.293   1.241   1.287
  705SOL    HW3 2851   4.214   1.229   1.158
  705SOL    MW4 2852   4.290   1.242   1.200
  706SOL     OW 2853   4.296   1.524   1.125
  706SOL    HW2 2854   4.318   1.432   1.141
  706SOL    HW3 2855   4.372   1.573   1.157
  706SOL    MW4 2856   4.309   1.519   1.131
  707SOL     OW 2857   4.035   1.630   1.195
  707SOL    HW2 2858   4.045   1.634   1.290
  707SOL    HW3 2859   4.118   1.593   1.163
  707SOL    MW4 2860   4.047   1.625   1.203
  708SOL     OW 2861   4.065   1.889   1.102
  708SOL    HW2 2862   4.068   1.798   1.130
  708SOL    HW3 2863   4.063   1.886   1.007
  708SOL    MW4 2864   4.065   1.877   1.093
  709SOL     OW 2865   4.257   2.052   1.224
  709SOL    HW2 2866   4.243   2.140   1.188
  709SOL    HW3 2867   4.191   1.998   1.180
  709SOL    MW4 2868   4.247   2.057   1.213
  710SOL     OW 2869   4.239   2.320   1.154
  710SOL    HW2 2870   4.154   2.354   1.181
  710SOL    HW3 2871   4.249   2.351   1.064
  710SOL    MW4 2872   4.229   2.329   1.146
  711SOL     OW 2873   4.004   2.449   1.223
  711SOL    HW2 2874   4.001   2.438   1.318
  711SOL    HW3 2875   4.023   2.542   1.210
  711SOL    MW4 2876   4.006   2.460   1.234
  712SOL     OW 2877   4.062   2.715   1.147
  712SOL    HW2 2878   3.974   2.744   1.170
  712SOL    HW3 2879   4.054   2.677   1.060
  712SOL    MW4 2880   4.050   2.714   1.139
  713SOL     OW 2881   4.287   2.844   1.265
  713SOL    HW2 2882   4.271   2.928   1.223
  713SOL    HW3 2883   4.211   2.791   1.243
  713SOL    MW4 2884   4.275   2.848   1.257
  714SOL     OW 2885   4.262   3.089   1.122
  714SOL    HW2 2886   4.185   3.132   1.158
  714SOL    HW3 2887   4.255   3.102   1.027
  714SOL    MW4 2888   4.251   3.096   1.114
  715SOL     OW 2889   4.045   3.220   1.235
  715SOL    HW2 2890   4.028   3.214   1.329
  715SOL    HW3 2891   3.961   3.197   1.194
  715SOL    MW4 2892   4.031   3.216   1.242
  716SOL     OW 2893   4.042   3.482   1.138
  716SOL    HW2 2894   4.053   3.398   1.183
  716SOL    HW3 2895   3.954   3.511   1.163
  716SOL    MW4 2896   4.031   3.474   1.147
  717SOL     OW 2897   4.269   3.623   1.215
  717SOL    HW2 2898   4.190   3.578   1.184
  717SOL    HW3 2899   4.341   3.574   1.175
  717SOL    MW4 2900   4.268   3.611   1.205
  718SOL     OW 2901   4.252   3.846   1.054
  718SOL    HW2 2902   4.183   3.902   1.089
  718SOL    HW3 2903   4.251   3.769   1.110
  718SOL    MW4 2904   4.242   3.843   1.066
  719SOL     OW 2905   4.043   3.977   1.202
  719SOL    HW2 2906   4.024   4.069   1.184
  719SOL    HW3 2907   3.963   3.931   1.178
  719SOL    MW4 2908   4.030   3.983   1.196
  720SOL     OW 2909   4.004   4.249   1.126
  720SOL    HW2 2910   3.927   4.299   1.153
  720SOL    HW3 2911   4.000   4.247   1.031
  720SOL    MW4 2912   3.993   4.255   1.117
  721SOL     OW 2913   4.224   4.345   1.276
  721SOL    HW2 2914   4.154   4.299   1.229
  721SOL    HW3 2915   4.304   4.298   1.249
  721SOL    MW4 2916   4.226   4.333   1.266
  722SOL     OW 2917   0.185   4.639   1.610
  722SOL    HW2 2918   0.254   4.685   1.562
  722SOL    HW3 2919   0.104   4.679   1.578
  722SOL    MW4 2920   0.183   4.650   1.599
  723SOL     OW 2921   4.456   0.120   1.514
  723SOL    HW2 2922   4.387   0.063   1.549
  723SOL    HW3 2923   4.453   0.105   1.420
  723SOL    MW4 2924   4.446   0.110   1.506
  724SOL     OW 2925   4.455   0.374   1.638
  724SOL    HW2 2926   4.462   0.369   1.733
  724SOL    HW3 2927   4.447   0.283   1.610
  724SOL    MW4 2928   4.455   0.361   1.647
  725SOL     OW 2929   0.207   0.470   1.494
  725SOL    HW2 2930   0.138   0.427   1.544
  725SOL    HW3 2931   0.191   0.443   1.404
  725SOL    MW4 2932   0.196   0.461   1.489
  726SOL     OW 2933   0.220   0.733   1.603
  726SOL    HW2 2934   0.281   0.797   1.567
  726SOL    HW3 2935   0.233   0.655   1.549
  726SOL    MW4 2936   0.230   0.731   1.591
  727SOL     OW 2937   0.006   0.876   1.509
  727SOL    HW2 2938   0.014   0.965   1.544
  727SOL    HW3 2939   0.082   0.829   1.544
  727SOL    MW4 2940   0.017   0.882   1.518
  728SOL     OW 2941   0.033   1.130   1.613
  728SOL    HW2 2942   0.020   1.160   1.703
  728SOL    HW3 2943   0.107   1.182   1.581
  728SOL    MW4 2944   0.041   1.141   1.621
  729SOL     OW 2945   0.224   1.270   1.491
  729SOL    HW2 2946   0.219   1.360   1.521
  729SOL    HW3 2947   0.226   1.276   1.395
  729SOL    MW4 2948   0.223   1.282   1.482
  730SOL     OW 2949   0.181   1.525   1.600
  730SOL    HW2 2950   0.188   1.532   1.695
  730SOL    HW3 2951   0.101   1.572   1.578
  730SOL    MW4 2952   0.172   1.532   1.610
  731SOL     OW 2953   4.463   1.683   1.510
  731SOL    HW2 2954   4.458   1.776   1.532
  731SOL    HW3 2955   4.464   1.682   1.414
  731SOL    MW4 2956   4.463   1.695   1.500
  732SOL     OW 2957   4.480   1.964   1.557
  732SOL    HW2 2958   4.475   1.942   1.650
  732SOL    HW3 2959   4.393   1.998   1.535
  732SOL    MW4 2960   4.468   1.966   1.566
  733SOL     OW 2961   0.222   2.071   1.480
  733SOL    HW2 2962   0.143   2.024   1.504
  733SOL    HW3 2963   0.225   2.065   1.384
  733SOL    MW4 2964   0.212   2.064   1.470
  734SOL     OW 2965   0.193   2.317   1.611
  734SOL    HW2 2966   0.186   2.301   1.705
  734SOL    HW3 2967   0.182   2.231   1.570
  734SOL    MW4 2968   0.190   2.304   1.618
  735SOL     OW 2969   4.465   2.467   1.540
  735SOL    HW2 2970   4.389   2.416   1.565
  735SOL    HW3 2971   4.540   2.413   1.565
  735SOL    MW4 2972   4.465   2.453   1.546
  736SOL     OW 2973   4.459   2.730   1.640
  736SOL    HW2 2974   4.380   2.763   1.597
  736SOL    HW3 2975   4.477   2.647   1.596
  736SOL    MW4 2976   4.451   2.723   1.629
  737SOL     OW 2977   0.194   2.812   1.501
  737SOL    HW2 2978   0.269   2.765   1.536
  737SOL    HW3 2979   0.121   2.787   1.557
  737SOL    MW4 2980   0.194   2.803   1.513
  738SOL     OW 2981   0.231   3.082   1.588
  738SOL    HW2 2982   0.147   3.117   1.558
  738SOL    HW3 2983   0.229   2.989   1.564
  738SOL    MW4 2984   0.220   3.074   1.581
  739SOL     OW 2985   0.014   3.225   1.504
  739SOL    HW2 2986   0.011   3.316   1.532
  739SOL    HW3 2987   0.001   3.229   1.409
  739SOL    MW4 2988   0.012   3.238   1.495
  740SOL     OW 2989   4.480   3.482   1.610
  740SOL    HW2 2990   4.470   3.472   1.705
  740SOL    HW3 2991   4.398   3.522   1.581
  740SOL    MW4 2992   4.468   3.486   1.619
  741SOL     OW 2993   0.202   3.652   1.507
  741SOL    HW2 2994   0.192   3.741   1.542
  741SOL    HW3 2995   0.136   3.600   1.552
  741SOL    MW4 2996   0.192   3.657   1.517
  742SOL     OW 2997   0.188   3.923   1.591
  742SOL    HW2 2998   0.171   3.912   1.685
  742SOL    HW3 2999   0.282   3.940   1.586
  742SOL    MW4 3000   0.198   3.924   1.603
  743SOL     OW 3001   4.460   4.008   1.470
  743SOL    HW2 3002   4.454   4.095   1.509
  743SOL    HW3 3003   4.536   3.967   1.511
  743SOL    MW4 3004   4.469   4.014   1.480
  744SOL     OW 3005   4.453   4.254   1.604
  744SOL    HW2 3006   4.449   4.249   1.699
  744SOL    HW3 3007   4.366   4.284   1.577
  744SOL    MW4 3008   4.441   4.257   1.613
  745SOL     OW 3009   0.202   4.392   1.513
  745SOL    HW2 3010   0.123   4.347   1.544
  745SOL    HW3 3011   0.192   4.481   1.547
  745SOL    MW4 3012   0.190   4.398   1.522
  746SOL     OW 3013   0.654   0.014   1.651
  746SOL    HW2 3014   0.731   0.056   1.613
  746SOL    HW3 3015   0.580   0.065   1.619
  746SOL    MW4 3016   0.654   0.026   1.642
  747SOL     OW 3017   0.414   0.087   1.518
  747SOL    HW2 3018   0.393   0.174   1.551
  747SOL    HW3 3019   0.412   0.095   1.423
  747SOL    MW4 3020   0.411   0.099   1.510
  748SOL     OW 3021   0.439   0.349   1.637
  748SOL    HW2 3022   0.512   0.397   1.598
  748SOL    HW3 3023   0.361   0.387   1.597
  748SOL    MW4 3024   0.438   0.360   1.627
  749SOL     OW 3025   0.643   0.509   1.555
  749SOL    HW2 3026   0.629   0.597   1.589
  749SOL    HW3 3027   0.630   0.519   1.460
  749SOL    MW4 3028   0.639   0.522   1.547
  750SOL     OW 3029   0.652   0.786   1.582
  750SOL    HW2 3030   0.651   0.799   1.677
  750SOL    HW3 3031   0.741   0.810   1.556
  750SOL    MW4 3032   0.664   0.791   1.591
  751SOL     OW 3033   0.423   0.892   1.479
  751SOL    HW2 3034   0.439   0.976   1.523
  751SOL    HW3 3035   0.490   0.833   1.515
  751SOL    MW4 3036   0.434   0.895   1.490
  752SOL     OW 3037   0.453   1.134   1.584
  752SOL    HW2 3038   0.530   1.180   1.552
  752SOL    HW3 3039   0.379   1.177   1.540
  752SOL    MW4 3040   0.453   1.146   1.574
  753SOL     OW 3041   0.668   1.267   1.463
  753SOL    HW2 3042   0.673   1.350   1.509
  753SOL    HW3 3043   0.689   1.288   1.372
  753SOL    MW4 3044   0.671   1.281   1.457
  754SOL     OW 3045   0.644   1.525   1.576
  754SOL    HW2 3046   0.711   1.586   1.545
  754SOL    HW3 3047   0.561   1.562   1.545
  754SOL    MW4 3048   0.642   1.538   1.568
  755SOL     OW 3049   0.403   1.651   1.495
  755SOL    HW2 3050   0.395   1.738   1.534
  755SOL    HW3 3051   0.343   1.596   1.545
  755SOL    MW4 3052   0.394   1.655   1.506
  756SOL     OW 3053   0.427   1.924   1.582
  756SOL    HW2 3054   0.412   1.934   1.676
  756SOL    HW3 3055   0.355   1.974   1.542
  756SOL    MW4 3056   0.415   1.932   1.589
  757SOL     OW 3057   0.645   2.067   1.480
  757SOL    HW2 3058   0.719   2.017   1.513
  757SOL    HW3 3059   0.568   2.020   1.511
  757SOL    MW4 3060   0.645   2.054   1.489
  758SOL     OW 3061   0.639   2.339   1.581
  758SOL    HW2 3062   0.557   2.372   1.545
  758SOL    HW3 3063   0.642   2.247   1.552
  758SOL    MW4 3064   0.629   2.331   1.572
  759SOL     OW 3065   0.398   2.432   1.477
  759SOL    HW2 3066   0.403   2.517   1.521
  759SOL    HW3 3067   0.320   2.390   1.513
  759SOL    MW4 3068   0.389   2.437   1.488
  760SOL     OW 3069   0.392   2.688   1.604
  760SOL    HW2 3070   0.392   2.692   1.700
  760SOL    HW3 3071   0.476   2.727   1.579
  760SOL    MW4 3072   0.403   2.694   1.614
  761SOL     OW 3073   0.619   2.838   1.511
  761SOL    HW2 3074   0.634   2.924   1.549
  761SOL    HW3 3075   0.611   2.854   1.417
  761SOL    MW4 3076   0.620   2.851   1.503
  762SOL     OW 3077   0.668   3.096   1.591
  762SOL    HW2 3078   0.733   3.141   1.537
  762SOL    HW3 3079   0.586   3.143   1.574
  762SOL    MW4 3080   0.666   3.108   1.581
  763SOL     OW 3081   0.440   3.240   1.513
  763SOL    HW2 3082   0.369   3.187   1.548
  763SOL    HW3 3083   0.444   3.218   1.420
  763SOL    MW4 3084   0.431   3.230   1.506
  764SOL     OW 3085   0.440   3.505   1.617
  764SOL    HW2 3086   0.440   3.413   1.590
  764SOL    HW3 3087   0.353   3.538   1.592
  764SOL    MW4 3088   0.428   3.497   1.610
  765SOL     OW 3089   0.683   3.632   1.513
  765SOL    HW2 3090   0.747   3.583   1.564
  765SOL    HW3 3091   0.598   3.606   1.549
  765SOL    MW4 3092   0.680   3.622   1.525
  766SOL     OW 3093   0.668   3.879   1.624
  766SOL    HW2 3094   0.740   3.928   1.587
  766SOL    HW3 3095   0.666   3.797   1.575
  766SOL    MW4 3096   0.677   3.875   1.613
  767SOL     OW 3097   0.444   4.003   1.539
  767SOL    HW2 3098   0.522   3.957   1.571
  767SOL    HW3 3099   0.442   3.985   1.445
  767SOL    MW4 3100   0.454   3.994   1.531
  768SOL     OW 3101   0.418   4.265   1.644
  768SOL    HW2 3102   0.396   4.177   1.615
  768SOL    HW3 3103   0.351   4.321   1.606
  768SOL    MW4 3104   0.406   4.261   1.636
  769SOL     OW 3105   0.637   4.414   1.535
  769SOL    HW2 3106   0.573   4.362   1.585
  769SOL    HW3 3107   0.634   4.501   1.576
  769SOL    MW4 3108   0.628   4.419   1.547
  770SOL     OW 3109   1.074   0.026   1.633
  770SOL    HW2 3110   1.076   0.034   1.728
  770SOL    HW3 3111   1.161   0.054   1.604
  770SOL    MW4 3112   1.086   0.031   1.641
  771SOL     OW 3113   0.878   0.144   1.503
  771SOL    HW2 3114   0.902   0.236   1.520
  771SOL    HW3 3115   0.940   0.094   1.557
  771SOL    MW4 3116   0.889   0.150   1.513
  772SOL     OW 3117   0.896   0.413   1.591
  772SOL    HW2 3118   0.893   0.401   1.685
  772SOL    HW3 3119   0.814   0.458   1.570
  772SOL    MW4 3120   0.885   0.418   1.600
  773SOL     OW 3121   1.139   0.502   1.540
  773SOL    HW2 3122   1.151   0.587   1.582
  773SOL    HW3 3123   1.046   0.483   1.550
  773SOL    MW4 3124   1.129   0.511   1.547
  774SOL     OW 3125   1.142   0.759   1.636
  774SOL    HW2 3126   1.160   0.767   1.729
  774SOL    HW3 3127   1.217   0.799   1.593
  774SOL    MW4 3128   1.154   0.765   1.642
  775SOL     OW 3129   0.913   0.864   1.483
  775SOL    HW2 3130   0.990   0.838   1.534
  775SOL    HW3 3131   0.933   0.836   1.394
  775SOL    MW4 3132   0.926   0.857   1.478
  776SOL     OW 3133   0.893   1.124   1.546
  776SOL    HW2 3134   0.901   1.037   1.507
  776SOL    HW3 3135   0.812   1.159   1.509
  776SOL    MW4 3136   0.883   1.118   1.536
  777SOL     OW 3137   1.098   1.301   1.473
  777SOL    HW2 3138   1.173   1.263   1.519
  777SOL    HW3 3139   1.024   1.247   1.500
  777SOL    MW4 3140   1.098   1.289   1.483
  778SOL     OW 3141   1.067   1.534   1.607
  778SOL    HW2 3142   1.138   1.594   1.584
  778SOL    HW3 3143   1.088   1.453   1.559
  778SOL    MW4 3144   1.079   1.531   1.597
  779SOL     OW 3145   0.861   1.673   1.495
  779SOL    HW2 3146   0.935   1.630   1.539
  779SOL    HW3 3147   0.868   1.644   1.404
  779SOL    MW4 3148   0.872   1.663   1.489
  780SOL     OW 3149   0.864   1.943   1.566
  780SOL    HW2 3150   0.946   1.972   1.526
  780SOL    HW3 3151   0.857   1.851   1.542
  780SOL    MW4 3152   0.874   1.935   1.557
  781SOL     OW 3153   1.096   2.061   1.448
  781SOL    HW2 3154   1.172   2.018   1.488
  781SOL    HW3 3155   1.088   2.144   1.496
  781SOL    MW4 3156   1.105   2.067   1.460
  782SOL     OW 3157   1.110   2.301   1.569
  782SOL    HW2 3158   1.191   2.347   1.546
  782SOL    HW3 3159   1.041   2.363   1.548
  782SOL    MW4 3160   1.112   2.315   1.563
  783SOL     OW 3161   0.898   2.443   1.485
  783SOL    HW2 3162   0.912   2.527   1.529
  783SOL    HW3 3163   0.814   2.411   1.519
  783SOL    MW4 3164   0.889   2.450   1.496
  784SOL     OW 3165   0.883   2.733   1.588
  784SOL    HW2 3166   0.885   2.743   1.683
  784SOL    HW3 3167   0.802   2.775   1.561
  784SOL    MW4 3168   0.873   2.740   1.597
  785SOL     OW 3169   1.103   2.865   1.514
  785SOL    HW2 3170   1.105   2.950   1.558
  785SOL    HW3 3171   1.014   2.833   1.527
  785SOL    MW4 3172   1.091   2.872   1.522
  786SOL     OW 3173   1.096   3.112   1.631
  786SOL    HW2 3174   1.097   3.103   1.726
  786SOL    HW3 3175   1.184   3.143   1.609
  786SOL    MW4 3176   1.108   3.115   1.641
  787SOL     OW 3177   0.894   3.235   1.465
  787SOL    HW2 3178   0.974   3.195   1.498
  787SOL    HW3 3179   0.889   3.208   1.374
  787SOL    MW4 3180   0.904   3.226   1.457
  788SOL     OW 3181   0.917   3.481   1.613
  788SOL    HW2 3182   0.983   3.537   1.572
  788SOL    HW3 3183   0.910   3.405   1.555
  788SOL    MW4 3184   0.924   3.478   1.600
  789SOL     OW 3185   1.134   3.649   1.512
  789SOL    HW2 3186   1.208   3.603   1.552
  789SOL    HW3 3187   1.155   3.653   1.419
  789SOL    MW4 3188   1.147   3.644   1.505
  790SOL     OW 3189   1.109   3.890   1.618
  790SOL    HW2 3190   1.189   3.924   1.577
  790SOL    HW3 3191   1.108   3.797   1.596
  790SOL    MW4 3192   1.119   3.882   1.610
  791SOL     OW 3193   0.883   4.025   1.549
  791SOL    HW2 3194   0.883   4.115   1.582
  791SOL    HW3 3195   0.961   3.985   1.587
  791SOL    MW4 3196   0.893   4.032   1.558
  792SOL     OW 3197   0.887   4.313   1.649
  792SOL    HW2 3198   0.861   4.321   1.741
  792SOL    HW3 3199   0.812   4.348   1.600
  792SOL    MW4 3200   0.874   4.319   1.655
  793SOL     OW 3201   1.109   4.440   1.511
  793SOL    HW2 3202   1.035   4.394   1.551
  793SOL    HW3 3203   1.112   4.524   1.555
  793SOL    MW4 3204   1.100   4.445   1.522
  794SOL     OW 3205   1.580   4.663   1.595
  794SOL    HW2 3206   1.596   4.672   1.689
  794SOL    HW3 3207   1.486   4.680   1.586
  794SOL    MW4 3208   1.570   4.666   1.606
  795SOL     OW 3209   1.314   0.088   1.544
  795SOL    HW2 3210   1.340   0.179   1.558
  795SOL    HW3 3211   1.328   0.073   1.450
  795SOL    MW4 3212   1.319   0.098   1.533
  796SOL     OW 3213   1.366   0.354   1.605
  796SOL    HW2 3214   1.427   0.418   1.568
  796SOL    HW3 3215   1.280   0.396   1.597
  796SOL    MW4 3216   1.363   0.368   1.599
  797SOL     OW 3217   1.563   0.538   1.554
  797SOL    HW2 3218   1.626   0.477   1.591
  797SOL    HW3 3219   1.578   0.534   1.459
  797SOL    MW4 3220   1.573   0.529   1.546
  798SOL     OW 3221   1.577   0.808   1.625
  798SOL    HW2 3222   1.565   0.823   1.718
  798SOL    HW3 3223   1.568   0.713   1.614
  798SOL    MW4 3224   1.574   0.797   1.636
  799SOL     OW 3225   1.348   0.878   1.493
  799SOL    HW2 3226   1.428   0.852   1.539
  799SOL    HW3 3227   1.370   0.872   1.401
  799SOL    MW4 3228   1.362   0.874   1.487
  800SOL     OW 3229   1.335   1.155   1.552
  800SOL    HW2 3230   1.344   1.152   1.648
  800SOL    HW3 3231   1.364   1.068   1.524
  800SOL    MW4 3232   1.340   1.143   1.561
  801SOL     OW 3233   1.565   1.285   1.486
  801SOL    HW2 3234   1.493   1.230   1.514
  801SOL    HW3 3235   1.561   1.283   1.390
  801SOL    MW4 3236   1.555   1.278   1.477
  802SOL     OW 3237   1.536   1.554   1.551
  802SOL    HW2 3238   1.547   1.570   1.645
  802SOL    HW3 3239   1.549   1.460   1.540
  802SOL    MW4 3240   1.539   1.544   1.562
  803SOL     OW 3241   1.292   1.644   1.468
  803SOL    HW2 3242   1.371   1.594   1.491
  803SOL    HW3 3243   1.291   1.644   1.373
  803SOL    MW4 3244   1.302   1.637   1.459
  804SOL     OW 3245   1.324   1.912   1.557
  804SOL    HW2 3246   1.331   1.905   1.653
  804SOL    HW3 3247   1.325   1.821   1.526
  804SOL    MW4 3248   1.325   1.899   1.566
  805SOL     OW 3249   1.578   2.028   1.498
  805SOL    HW2 3250   1.508   1.965   1.513
  805SOL    HW3 3251   1.562   2.061   1.410
  805SOL    MW4 3252   1.567   2.024   1.489
  806SOL     OW 3253   1.549   2.282   1.592
  806SOL    HW2 3254   1.628   2.326   1.562
  806SOL    HW3 3255   1.563   2.190   1.572
  806SOL    MW4 3256   1.561   2.276   1.586
  807SOL     OW 3257   1.337   2.439   1.500
  807SOL    HW2 3258   1.330   2.523   1.546
  807SOL    HW3 3259   1.412   2.396   1.542
  807SOL    MW4 3260   1.346   2.445   1.512
  808SOL     OW 3261   1.312   2.692   1.613
  808SOL    HW2 3262   1.386   2.735   1.570
  808SOL    HW3 3263   1.236   2.744   1.588
  808SOL    MW4 3264   1.312   2.705   1.604
  809SOL     OW 3265   1.543   2.830   1.541
  809SOL    HW2 3266   1.623   2.793   1.579
  809SOL    HW3 3267   1.563   2.838   1.448
  809SOL    MW4 3268   1.556   2.826   1.534
  810SOL     OW 3269   1.566   3.115   1.657
  810SOL    HW2 3270   1.639   3.130   1.597
  810SOL    HW3 3271   1.540   3.025   1.640
  810SOL    MW4 3272   1.572   3.105   1.647
  811SOL     OW 3273   1.343   3.225   1.547
  811SOL    HW2 3274   1.345   3.318   1.571
  811SOL    HW3 3275   1.424   3.190   1.582
  811SOL    MW4 3276   1.354   3.233   1.555
  812SOL     OW 3277   1.337   3.512   1.603
  812SOL    HW2 3278   1.341   3.521   1.699
  812SOL    HW3 3279   1.426   3.527   1.574
  812SOL    MW4 3280   1.349   3.515   1.612
  813SOL     OW 3281   1.594   3.578   1.518
  813SOL    HW2 3282   1.592   3.665   1.557
  813SOL    HW3 3283   1.600   3.594   1.423
  813SOL    MW4 3284   1.595   3.592   1.510
  814SOL     OW 3285   1.589   3.887   1.612
  814SOL    HW2 3286   1.586   3.894   1.707
  814SOL    HW3 3287   1.516   3.941   1.581
  814SOL    MW4 3288   1.579   3.895   1.620
  815SOL     OW 3289   1.334   4.011   1.550
  815SOL    HW2 3290   1.314   4.103   1.566
  815SOL    HW3 3291   1.346   4.006   1.455
  815SOL    MW4 3292   1.333   4.023   1.539
  816SOL     OW 3293   1.341   4.287   1.607
  816SOL    HW2 3294   1.422   4.332   1.583
  816SOL    HW3 3295   1.271   4.344   1.573
  816SOL    MW4 3296   1.342   4.300   1.599
  817SOL     OW 3297   1.579   4.401   1.537
  817SOL    HW2 3298   1.657   4.352   1.563
  817SOL    HW3 3299   1.595   4.490   1.567
  817SOL    MW4 3300   1.591   4.406   1.544
  818SOL     OW 3301   1.986   0.007   1.584
  818SOL    HW2 3302   1.966   0.011   1.677
  818SOL    HW3 3303   1.911   0.051   1.542
  818SOL    MW4 3304   1.973   0.013   1.591
  819SOL     OW 3305   1.769   0.163   1.498
  819SOL    HW2 3306   1.691   0.117   1.529
  819SOL    HW3 3307   1.776   0.139   1.405
  819SOL    MW4 3308   1.760   0.154   1.490
  820SOL     OW 3309   1.797   0.401   1.634
  820SOL    HW2 3310   1.872   0.451   1.602
  820SOL    HW3 3311   1.802   0.318   1.587
  820SOL    MW4 3312   1.808   0.397   1.623
  821SOL     OW 3313   2.034   0.518   1.547
  821SOL    HW2 3314   2.113   0.469   1.569
  821SOL    HW3 3315   2.050   0.607   1.580
  821SOL    MW4 3316   2.046   0.523   1.554
  822SOL     OW 3317   2.014   0.814   1.618
  822SOL    HW2 3318   2.089   0.846   1.568
  822SOL    HW3 3319   1.938   0.857   1.578
  822SOL    MW4 3320   2.014   0.824   1.606
  823SOL     OW 3321   1.797   0.913   1.494
  823SOL    HW2 3322   1.779   1.000   1.530
  823SOL    HW3 3323   1.734   0.856   1.538
  823SOL    MW4 3324   1.786   0.917   1.505
  824SOL     OW 3325   1.768   1.153   1.603
  824SOL    HW2 3326   1.849   1.198   1.579
  824SOL    HW3 3327   1.699   1.205   1.562
  824SOL    MW4 3328   1.770   1.166   1.594
  825SOL     OW 3329   2.024   1.272   1.515
  825SOL    HW2 3330   2.008   1.356   1.558
  825SOL    HW3 3331   2.012   1.288   1.422
  825SOL    MW4 3332   2.021   1.285   1.509
  826SOL     OW 3333   2.002   1.514   1.655
  826SOL    HW2 3334   2.068   1.572   1.618
  826SOL    HW3 3335   1.919   1.548   1.623
  826SOL    MW4 3336   2.000   1.526   1.646
  827SOL     OW 3337   1.786   1.635   1.510
  827SOL    HW2 3338   1.696   1.603   1.514
  827SOL    HW3 3339   1.801   1.652   1.417
  827SOL    MW4 3340   1.776   1.633   1.498
  828SOL     OW 3341   1.793   1.900   1.603
  828SOL    HW2 3342   1.781   1.812   1.567
  828SOL    HW3 3343   1.717   1.950   1.573
  828SOL    MW4 3344   1.782   1.895   1.594
  829SOL     OW 3345   2.006   2.031   1.521
  829SOL    HW2 3346   2.077   1.986   1.568
  829SOL    HW3 3347   1.927   1.984   1.547
  829SOL    MW4 3348   2.005   2.019   1.531
  830SOL     OW 3349   2.014   2.296   1.601
  830SOL    HW2 3350   2.017   2.297   1.697
  830SOL    HW3 3351   1.995   2.205   1.578
  830SOL    MW4 3352   2.012   2.284   1.611
  831SOL     OW 3353   1.776   2.433   1.496
  831SOL    HW2 3354   1.843   2.382   1.543
  831SOL    HW3 3355   1.794   2.415   1.403
  831SOL    MW4 3356   1.787   2.424   1.490
  832SOL     OW 3357   1.768   2.679   1.626
  832SOL    HW2 3358   1.852   2.717   1.601
  832SOL    HW3 3359   1.766   2.594   1.581
  832SOL    MW4 3360   1.779   2.672   1.616
  833SOL     OW 3361   2.003   2.813   1.555
  833SOL    HW2 3362   2.005   2.907   1.574
  833SOL    HW3 3363   2.025   2.807   1.462
  833SOL    MW4 3364   2.006   2.825   1.545
  834SOL     OW 3365   2.030   3.090   1.612
  834SOL    HW2 3366   2.027   3.109   1.706
  834SOL    HW3 3367   2.096   3.150   1.578
  834SOL    MW4 3368   2.038   3.101   1.620
  835SOL     OW 3369   1.799   3.185   1.493
  835SOL    HW2 3370   1.805   3.274   1.528
  835SOL    HW3 3371   1.880   3.143   1.521
  835SOL    MW4 3372   1.810   3.191   1.501
  836SOL     OW 3373   1.818   3.456   1.577
  836SOL    HW2 3374   1.817   3.450   1.672
  836SOL    HW3 3375   1.732   3.491   1.553
  836SOL    MW4 3376   1.807   3.460   1.586
  837SOL     OW 3377   2.043   3.633   1.519
  837SOL    HW2 3378   2.117   3.578   1.545
  837SOL    HW3 3379   1.966   3.581   1.544
  837SOL    MW4 3380   2.042   3.619   1.526
  838SOL     OW 3381   2.039   3.880   1.643
  838SOL    HW2 3382   2.119   3.913   1.603
  838SOL    HW3 3383   2.019   3.799   1.595
  838SOL    MW4 3384   2.047   3.873   1.632
  839SOL     OW 3385   1.826   4.003   1.508
  839SOL    HW2 3386   1.888   3.954   1.562
  839SOL    HW3 3387   1.742   3.961   1.524
  839SOL    MW4 3388   1.823   3.991   1.518
  840SOL     OW 3389   1.821   4.277   1.601
  840SOL    HW2 3390   1.896   4.322   1.562
  840SOL    HW3 3391   1.832   4.186   1.573
  840SOL    MW4 3392   1.833   4.271   1.592
  841SOL     OW 3393   2.018   4.425   1.466
  841SOL    HW2 3394   2.093   4.387   1.512
  841SOL    HW3 3395   1.998   4.504   1.515
  841SOL    MW4 3396   2.025   4.430   1.479
  842SOL     OW 3397   2.460   4.626   1.600
  842SOL    HW2 3398   2.471   4.625   1.696
  842SOL    HW3 3399   2.369   4.655   1.587
  842SOL    MW4 3400   2.449   4.630   1.611
  843SOL     OW 3401   2.237   0.107   1.491
  843SOL    HW2 3402   2.153   0.088   1.532
  843SOL    HW3 3403   2.227   0.077   1.400
  843SOL    MW4 3404   2.225   0.101   1.484
  844SOL     OW 3405   2.249   0.370   1.611
  844SOL    HW2 3406   2.250   0.363   1.706
  844SOL    HW3 3407   2.238   0.281   1.579
  844SOL    MW4 3408   2.248   0.358   1.619
  845SOL     OW 3409   2.467   0.515   1.502
  845SOL    HW2 3410   2.547   0.471   1.530
  845SOL    HW3 3411   2.398   0.475   1.555
  845SOL    MW4 3412   2.468   0.504   1.512
  846SOL     OW 3413   2.482   0.767   1.618
  846SOL    HW2 3414   2.402   0.813   1.594
  846SOL    HW3 3415   2.483   0.689   1.563
  846SOL    MW4 3416   2.472   0.763   1.608
  847SOL     OW 3417   2.246   0.896   1.484
  847SOL    HW2 3418   2.256   0.980   1.528
  847SOL    HW3 3419   2.239   0.918   1.391
  847SOL    MW4 3420   2.247   0.910   1.478
  848SOL     OW 3421   2.263   1.134   1.619
  848SOL    HW2 3422   2.260   1.132   1.714
  848SOL    HW3 3423   2.173   1.154   1.592
  848SOL    MW4 3424   2.251   1.137   1.628
  849SOL     OW 3425   2.460   1.322   1.523
  849SOL    HW2 3426   2.403   1.249   1.545
  849SOL    HW3 3427   2.470   1.318   1.428
  849SOL    MW4 3428   2.454   1.312   1.513
  850SOL     OW 3429   2.442   1.581   1.644
  850SOL    HW2 3430   2.525   1.610   1.606
  850SOL    HW3 3431   2.434   1.489   1.617
  850SOL    MW4 3432   2.452   1.573   1.635
  851SOL     OW 3433   2.199   1.677   1.508
  851SOL    HW2 3434   2.292   1.670   1.530
  851SOL    HW3 3435   2.197   1.679   1.412
  851SOL    MW4 3436   2.211   1.676   1.498
  852SOL     OW 3437   2.230   1.929   1.627
  852SOL    HW2 3438   2.233   1.929   1.723
  852SOL    HW3 3439   2.216   1.838   1.603
  852SOL    MW4 3440   2.228   1.917   1.637
  853SOL     OW 3441   2.480   2.031   1.495
  853SOL    HW2 3442   2.404   1.983   1.529
  853SOL    HW3 3443   2.464   2.037   1.401
  853SOL    MW4 3444   2.468   2.025   1.487
  854SOL     OW 3445   2.476   2.283   1.598
  854SOL    HW2 3446   2.475   2.291   1.693
  854SOL    HW3 3447   2.474   2.188   1.582
  854SOL    MW4 3448   2.476   2.271   1.608
  855SOL     OW 3449   2.255   2.419   1.546
  855SOL    HW2 3450   2.335   2.373   1.571
  855SOL    HW3 3451   2.185   2.359   1.569
  855SOL    MW4 3452   2.257   2.405   1.552
  856SOL     OW 3453   2.238   2.689   1.608
  856SOL    HW2 3454   2.222   2.597   1.585
  856SOL    HW3 3455   2.157   2.734   1.585
  856SOL    MW4 3456   2.225   2.683   1.602
  857SOL     OW 3457   2.453   2.772   1.454
  857SOL    HW2 3458   2.463   2.860   1.490
  857SOL    HW3 3459   2.373   2.738   1.495
  857SOL    MW4 3460   2.444   2.779   1.464
  858SOL     OW 3461   2.448   3.036   1.592
  858SOL    HW2 3462   2.518   3.096   1.567
  858SOL    HW3 3463   2.367   3.082   1.567
  858SOL    MW4 3464   2.446   3.050   1.585
  859SOL     OW 3465   2.248   3.204   1.475
  859SOL    HW2 3466   2.257   3.295   1.505
  859SOL    HW3 3467   2.271   3.207   1.382
  859SOL    MW4 3468   2.252   3.217   1.466
  860SOL     OW 3469   2.255   3.482   1.580
  860SOL    HW2 3470   2.272   3.470   1.673
  860SOL    HW3 3471   2.335   3.520   1.545
  860SOL    MW4 3472   2.268   3.485   1.588
  861SOL     OW 3473   2.494   3.604   1.476
  861SOL    HW2 3474   2.579   3.573   1.505
  861SOL    HW3 3475   2.484   3.690   1.516
  861SOL    MW4 3476   2.504   3.611   1.485
  862SOL     OW 3477   2.492   3.868   1.569
  862SOL    HW2 3478   2.500   3.860   1.664
  862SOL    HW3 3479   2.573   3.913   1.542
  862SOL    MW4 3480   2.504   3.873   1.578
  863SOL     OW 3481   2.248   4.006   1.515
  863SOL    HW2 3482   2.334   3.971   1.539
  863SOL    HW3 3483   2.248   4.007   1.420
  863SOL    MW4 3484   2.260   4.001   1.506
  864SOL     OW 3485   2.216   4.269   1.611
  864SOL    HW2 3486   2.297   4.306   1.575
  864SOL    HW3 3487   2.219   4.177   1.584
  864SOL    MW4 3488   2.227   4.262   1.603
  865SOL     OW 3489   2.428   4.376   1.483
  865SOL    HW2 3490   2.441   4.466   1.513
  865SOL    HW3 3491   2.448   4.379   1.389
  865SOL    MW4 3492   2.432   4.388   1.474
  866SOL     OW 3493   2.912   4.614   1.592
  866SOL    HW2 3494   2.919   4.635   1.685
  866SOL    HW3 3495   2.834   4.660   1.563
  866SOL    MW4 3496   2.903   4.623   1.601
  867SOL     OW 3497   2.683   0.089   1.511
  867SOL    HW2 3498   2.681   0.181   1.536
  867SOL    HW3 3499   2.595   0.057   1.531
  867SOL    MW4 3500   2.671   0.097   1.517
  868SOL     OW 3501   2.686   0.347   1.562
  868SOL    HW2 3502   2.686   0.350   1.658
  868SOL    HW3 3503   2.772   0.380   1.537
  868SOL    MW4 3504   2.697   0.351   1.571
  869SOL     OW 3505   2.899   0.497   1.497
  869SOL    HW2 3506   2.909   0.587   1.527
  869SOL    HW3 3507   2.912   0.501   1.403
  869SOL    MW4 3508   2.902   0.509   1.489
  870SOL     OW 3509   2.929   0.763   1.582
  870SOL    HW2 3510   2.928   0.750   1.677
  870SOL    HW3 3511   2.843   0.802   1.563
  870SOL    MW4 3512   2.917   0.766   1.592
  871SOL     OW 3513   2.703   0.914   1.531
  871SOL    HW2 3514   2.640   0.849   1.561
  871SOL    HW3 3515   2.685   0.925   1.438
  871SOL    MW4 3516   2.692   0.907   1.523
  872SOL     OW 3517   2.695   1.200   1.582
  872SOL    HW2 3518   2.673   1.109   1.559
  872SOL    HW3 3519   2.619   1.250   1.554
  872SOL    MW4 3520   2.682   1.194   1.575
  873SOL     OW 3521   2.931   1.310   1.498
  873SOL    HW2 3522   3.013   1.273   1.530
  873SOL    HW3 3523   2.862   1.260   1.543
  873SOL    MW4 3524   2.933   1.299   1.508
  874SOL     OW 3525   2.927   1.573   1.566
  874SOL    HW2 3526   2.832   1.582   1.571
  874SOL    HW3 3527   2.941   1.490   1.520
  874SOL    MW4 3528   2.917   1.563   1.561
  875SOL     OW 3529   2.671   1.678   1.511
  875SOL    HW2 3530   2.700   1.761   1.550
  875SOL    HW3 3531   2.692   1.687   1.418
  875SOL    MW4 3532   2.678   1.690   1.504
  876SOL     OW 3533   2.723   1.935   1.590
  876SOL    HW2 3534   2.715   1.956   1.683
  876SOL    HW3 3535   2.644   1.973   1.551
  876SOL    MW4 3536   2.711   1.943   1.597
  877SOL     OW 3537   2.936   2.066   1.448
  877SOL    HW2 3538   2.936   2.148   1.495
  877SOL    HW3 3539   2.875   2.010   1.497
  877SOL    MW4 3540   2.928   2.069   1.460
  878SOL     OW 3541   2.949   2.311   1.579
  878SOL    HW2 3542   2.946   2.298   1.674
  878SOL    HW3 3543   2.862   2.344   1.557
  878SOL    MW4 3544   2.937   2.313   1.589
  879SOL     OW 3545   2.705   2.421   1.530
  879SOL    HW2 3546   2.682   2.507   1.567
  879SOL    HW3 3547   2.638   2.362   1.564
  879SOL    MW4 3548   2.693   2.425   1.539
  880SOL     OW 3549   2.665   2.676   1.622
  880SOL    HW2 3550   2.743   2.717   1.585
  880SOL    HW3 3551   2.593   2.711   1.569
  880SOL    MW4 3552   2.666   2.686   1.610
  881SOL     OW 3553   2.862   2.783   1.466
  881SOL    HW2 3554   2.942   2.740   1.496
  881SOL    HW3 3555   2.876   2.875   1.486
  881SOL    MW4 3556   2.875   2.789   1.472
  882SOL     OW 3557   2.884   3.044   1.551
  882SOL    HW2 3558   2.893   3.058   1.645
  882SOL    HW3 3559   2.956   3.094   1.512
  882SOL    MW4 3560   2.894   3.053   1.558
  883SOL     OW 3561   2.649   3.213   1.532
  883SOL    HW2 3562   2.735   3.172   1.541
  883SOL    HW3 3563   2.635   3.218   1.437
  883SOL    MW4 3564   2.659   3.208   1.520
  884SOL     OW 3565   2.721   3.472   1.603
  884SOL    HW2 3566   2.706   3.486   1.696
  884SOL    HW3 3567   2.703   3.379   1.589
  884SOL    MW4 3568   2.716   3.461   1.613
  885SOL     OW 3569   2.933   3.615   1.504
  885SOL    HW2 3570   2.861   3.565   1.543
  885SOL    HW3 3571   2.934   3.587   1.412
  885SOL    MW4 3572   2.923   3.605   1.497
  886SOL     OW 3573   2.911   3.863   1.620
  886SOL    HW2 3574   2.846   3.912   1.571
  886SOL    HW3 3575   2.905   3.774   1.586
  886SOL    MW4 3576   2.902   3.858   1.609
  887SOL     OW 3577   2.725   3.988   1.459
  887SOL    HW2 3578   2.702   4.080   1.457
  887SOL    HW3 3579   2.755   3.968   1.370
  887SOL    MW4 3580   2.726   3.997   1.447
  888SOL     OW 3581   2.683   4.240   1.577
  888SOL    HW2 3582   2.755   4.299   1.554
  888SOL    HW3 3583   2.604   4.293   1.564
  888SOL    MW4 3584   2.682   4.255   1.572
  889SOL     OW 3585   2.911   4.363   1.466
  889SOL    HW2 3586   2.927   4.450   1.502
  889SOL    HW3 3587   2.881   4.380   1.376
  889SOL    MW4 3588   2.909   4.377   1.459
  890SOL     OW 3589   3.344   4.666   1.600
  890SOL    HW2 3590   3.420   4.702   1.553
  890SOL    HW3 3591   3.337   4.576   1.568
  890SOL    MW4 3592   3.353   4.659   1.590
  891SOL     OW 3593   3.110   0.116   1.500
  891SOL    HW2 3594   3.194   0.090   1.537
  891SOL    HW3 3595   3.047   0.057   1.541
  891SOL    MW4 3596   3.113   0.105   1.511
  892SOL     OW 3597   3.131   0.381   1.574
  892SOL    HW2 3598   3.126   0.292   1.540
  892SOL    HW3 3599   3.050   0.423   1.543
  892SOL    MW4 3600   3.119   0.375   1.565
  893SOL     OW 3601   3.379   0.484   1.501
  893SOL    HW2 3602   3.296   0.448   1.533
  893SOL    HW3 3603   3.368   0.487   1.406
  893SOL    MW4 3604   3.367   0.480   1.492
  894SOL     OW 3605   3.373   0.765   1.556
  894SOL    HW2 3606   3.359   0.770   1.651
  894SOL    HW3 3607   3.375   0.671   1.537
  894SOL    MW4 3608   3.372   0.753   1.566
  895SOL     OW 3609   3.156   0.914   1.469
  895SOL    HW2 3610   3.229   0.873   1.515
  895SOL    HW3 3611   3.078   0.876   1.510
  895SOL    MW4 3612   3.155   0.903   1.480
  896SOL     OW 3613   3.175   1.176   1.570
  896SOL    HW2 3614   3.169   1.162   1.664
  896SOL    HW3 3615   3.155   1.091   1.531
  896SOL    MW4 3616   3.172   1.163   1.577
  897SOL     OW 3617   3.417   1.280   1.476
  897SOL    HW2 3618   3.501   1.253   1.513
  897SOL    HW3 3619   3.352   1.238   1.531
  897SOL    MW4 3620   3.420   1.271   1.488
  898SOL     OW 3621   3.367   1.556   1.558
  898SOL    HW2 3622   3.371   1.559   1.653
  898SOL    HW3 3623   3.366   1.463   1.537
  898SOL    MW4 3624   3.367   1.545   1.568
  899SOL     OW 3625   3.130   1.693   1.411
  899SOL    HW2 3626   3.213   1.661   1.445
  899SOL    HW3 3627   3.065   1.662   1.474
  899SOL    MW4 3628   3.132   1.685   1.424
  900SOL     OW 3629   3.154   1.932   1.558
  900SOL    HW2 3630   3.146   1.851   1.508
  900SOL    HW3 3631   3.089   1.990   1.519
  900SOL    MW4 3632   3.144   1.929   1.546
  901SOL     OW 3633   3.396   2.030   1.488
  901SOL    HW2 3634   3.313   1.999   1.525
  901SOL    HW3 3635   3.379   2.035   1.394
  901SOL    MW4 3636   3.383   2.026   1.480
  902SOL     OW 3637   3.401   2.290   1.599
  902SOL    HW2 3638   3.448   2.336   1.529
  902SOL    HW3 3639   3.400   2.199   1.570
  902SOL    MW4 3640   3.407   2.284   1.586
  903SOL     OW 3641   3.164   2.441   1.508
  903SOL    HW2 3642   3.234   2.389   1.548
  903SOL    HW3 3643   3.085   2.388   1.521
  903SOL    MW4 3644   3.163   2.427   1.515
  904SOL     OW 3645   3.094   2.700   1.611
  904SOL    HW2 3646   3.169   2.748   1.573
  904SOL    HW3 3647   3.116   2.608   1.598
  904SOL    MW4 3648   3.107   2.695   1.604
  905SOL     OW 3649   3.310   2.844   1.521
  905SOL    HW2 3650   3.325   2.933   1.551
  905SOL    HW3 3651   3.340   2.844   1.430
  905SOL    MW4 3652   3.316   2.856   1.513
  906SOL     OW 3653   3.297   3.102   1.599
  906SOL    HW2 3654   3.326   3.088   1.689
  906SOL    HW3 3655   3.358   3.167   1.564
  906SOL    MW4 3656   3.309   3.109   1.606
  907SOL     OW 3657   3.076   3.242   1.480
  907SOL    HW2 3658   3.142   3.192   1.528
  907SOL    HW3 3659   3.103   3.234   1.388
  907SOL    MW4 3660   3.088   3.234   1.474
  908SOL     OW 3661   3.150   3.473   1.601
  908SOL    HW2 3662   3.134   3.384   1.571
  908SOL    HW3 3663   3.079   3.525   1.564
  908SOL    MW4 3664   3.139   3.468   1.592
  909SOL     OW 3665   3.352   3.586   1.460
  909SOL    HW2 3666   3.420   3.539   1.508
  909SOL    HW3 3667   3.270   3.561   1.503
  909SOL    MW4 3668   3.350   3.577   1.472
  910SOL     OW 3669   3.390   3.807   1.619
  910SOL    HW2 3670   3.311   3.855   1.597
  910SOL    HW3 3671   3.386   3.727   1.566
  910SOL    MW4 3672   3.379   3.803   1.609
  911SOL     OW 3673   3.165   3.941   1.550
  911SOL    HW2 3674   3.173   4.032   1.579
  911SOL    HW3 3675   3.078   3.914   1.580
  911SOL    MW4 3676   3.155   3.950   1.558
  912SOL     OW 3677   3.157   4.226   1.554
  912SOL    HW2 3678   3.141   4.258   1.643
  912SOL    HW3 3679   3.081   4.257   1.504
  912SOL    MW4 3680   3.145   4.235   1.559
  913SOL     OW 3681   3.341   4.414   1.491
  913SOL    HW2 3682   3.268   4.358   1.516
  913SOL    HW3 3683   3.344   4.409   1.395
  913SOL    MW4 3684   3.332   4.406   1.482
  914SOL     OW 3685   3.841   4.620   1.626
  914SOL    HW2 3686   3.854   4.631   1.720
  914SOL    HW3 3687   3.925   4.646   1.587
  914SOL    MW4 3688   3.854   4.625   1.633
  915SOL     OW 3689   3.595   0.094   1.513
  915SOL    HW2 3690   3.677   0.048   1.527
  915SOL    HW3 3691   3.592   0.110   1.418
  915SOL    MW4 3692   3.605   0.090   1.502
  916SOL     OW 3693   3.589   0.361   1.628
  916SOL    HW2 3694   3.592   0.279   1.579
  916SOL    HW3 3695   3.514   0.408   1.591
  916SOL    MW4 3696   3.580   0.356   1.617
  917SOL     OW 3697   3.808   0.541   1.527
  917SOL    HW2 3698   3.738   0.485   1.561
  917SOL    HW3 3699   3.802   0.531   1.432
  917SOL    MW4 3700   3.798   0.532   1.519
  918SOL     OW 3701   3.799   0.803   1.615
  918SOL    HW2 3702   3.718   0.847   1.590
  918SOL    HW3 3703   3.785   0.711   1.592
  918SOL    MW4 3704   3.787   0.796   1.609
  919SOL     OW 3705   3.558   0.955   1.501
  919SOL    HW2 3706   3.500   0.880   1.520
  919SOL    HW3 3707   3.570   0.952   1.406
  919SOL    MW4 3708   3.552   0.944   1.491
  920SOL     OW 3709   3.660   1.167   1.655
  920SOL    HW2 3710   3.722   1.219   1.603
  920SOL    HW3 3711   3.635   1.095   1.597
  920SOL    MW4 3712   3.665   1.164   1.640
  921SOL     OW 3713   3.811   1.308   1.465
  921SOL    HW2 3714   3.885   1.268   1.511
  921SOL    HW3 3715   3.801   1.394   1.507
  921SOL    MW4 3716   3.820   1.314   1.477
  922SOL     OW 3717   3.804   1.561   1.586
  922SOL    HW2 3718   3.796   1.570   1.681
  922SOL    HW3 3719   3.733   1.616   1.551
  922SOL    MW4 3720   3.794   1.570   1.594
  923SOL     OW 3721   3.595   1.678   1.466
  923SOL    HW2 3722   3.524   1.626   1.504
  923SOL    HW3 3723   3.586   1.667   1.372
  923SOL    MW4 3724   3.585   1.669   1.459
  924SOL     OW 3725   3.601   1.903   1.616
  924SOL    HW2 3726   3.605   1.827   1.559
  924SOL    HW3 3727   3.522   1.950   1.588
  924SOL    MW4 3728   3.591   1.899   1.605
  925SOL     OW 3729   3.808   2.039   1.511
  925SOL    HW2 3730   3.801   2.134   1.522
  925SOL    HW3 3731   3.731   2.004   1.556
  925SOL    MW4 3732   3.797   2.047   1.519
  926SOL     OW 3733   3.792   2.301   1.610
  926SOL    HW2 3734   3.784   2.318   1.704
  926SOL    HW3 3735   3.863   2.359   1.581
  926SOL    MW4 3736   3.800   2.311   1.618
  927SOL     OW 3737   3.587   2.456   1.464
  927SOL    HW2 3738   3.581   2.542   1.506
  927SOL    HW3 3739   3.631   2.401   1.528
  927SOL    MW4 3740   3.592   2.460   1.478
  928SOL     OW 3741   3.556   2.722   1.569
  928SOL    HW2 3742   3.562   2.702   1.662
  928SOL    HW3 3743   3.464   2.748   1.557
  928SOL    MW4 3744   3.545   2.723   1.580
  929SOL     OW 3745   3.788   2.846   1.487
  929SOL    HW2 3746   3.844   2.792   1.542
  929SOL    HW3 3747   3.699   2.825   1.516
  929SOL    MW4 3748   3.783   2.836   1.498
  930SOL     OW 3749   3.784   3.106   1.611
  930SOL    HW2 3750   3.865   3.150   1.588
  930SOL    HW3 3751   3.792   3.018   1.574
  930SOL    MW4 3752   3.796   3.100   1.603
  931SOL     OW 3753   3.548   3.238   1.489
  931SOL    HW2 3754   3.619   3.197   1.538
  931SOL    HW3 3755   3.582   3.250   1.401
  931SOL    MW4 3756   3.562   3.234   1.484
  932SOL     OW 3757   3.581   3.490   1.596
  932SOL    HW2 3758   3.649   3.539   1.549
  932SOL    HW3 3759   3.580   3.405   1.554
  932SOL    MW4 3760   3.590   3.485   1.585
  933SOL     OW 3761   3.789   3.606   1.485
  933SOL    HW2 3762   3.857   3.548   1.521
  933SOL    HW3 3763   3.807   3.691   1.525
  933SOL    MW4 3764   3.801   3.610   1.495
  934SOL     OW 3765   3.789   3.877   1.572
  934SOL    HW2 3766   3.865   3.911   1.524
  934SOL    HW3 3767   3.714   3.903   1.519
  934SOL    MW4 3768   3.789   3.885   1.558
  935SOL     OW 3769   3.553   3.955   1.473
  935SOL    HW2 3770   3.579   4.032   1.524
  935SOL    HW3 3771   3.496   3.905   1.531
  935SOL    MW4 3772   3.549   3.958   1.487
  936SOL     OW 3773   3.556   4.264   1.576
  936SOL    HW2 3774   3.558   4.248   1.670
  936SOL    HW3 3775   3.486   4.328   1.564
  936SOL    MW4 3776   3.547   4.270   1.587
  937SOL     OW 3777   3.804   4.375   1.504
  937SOL    HW2 3778   3.724   4.327   1.525
  937SOL    HW3 3779   3.805   4.450   1.564
  937SOL    MW4 3780   3.794   4.379   1.515
  938SOL     OW 3781   4.248   4.647   1.613
  938SOL    HW2 3782   4.247   4.646   1.709
  938SOL    HW3 3783   4.239   4.555   1.588
  938SOL    MW4 3784   4.247   4.635   1.622
  939SOL     OW 3785   4.035   0.094   1.490
  939SOL    HW2 3786   4.016   0.178   1.532
  939SOL    HW3 3787   4.114   0.062   1.533
  939SOL    MW4 3788   4.043   0.101   1.501
  940SOL     OW 3789   4.001   0.350   1.613
  940SOL    HW2 3790   3.993   0.355   1.708
  940SOL    HW3 3791   3.940   0.416   1.580
  940SOL    MW4 3792   3.992   0.360   1.621
  941SOL     OW 3793   4.215   0.471   1.499
  941SOL    HW2 3794   4.140   0.436   1.548
  941SOL    HW3 3795   4.292   0.437   1.546
  941SOL    MW4 3796   4.215   0.462   1.512
  942SOL     OW 3797   4.237   0.737   1.608
  942SOL    HW2 3798   4.240   0.654   1.561
  942SOL    HW3 3799   4.313   0.786   1.577
  942SOL    MW4 3800   4.247   0.733   1.598
  943SOL     OW 3801   4.038   0.909   1.522
  943SOL    HW2 3802   4.107   0.855   1.559
  943SOL    HW3 3803   3.957   0.868   1.552
  943SOL    MW4 3804   4.036   0.896   1.530
  944SOL     OW 3805   4.037   1.179   1.589
  944SOL    HW2 3806   4.030   1.190   1.684
  944SOL    HW3 3807   4.034   1.084   1.575
  944SOL    MW4 3808   4.036   1.168   1.600
  945SOL     OW 3809   4.310   1.264   1.482
  945SOL    HW2 3810   4.229   1.219   1.507
  945SOL    HW3 3811   4.380   1.212   1.520
  945SOL    MW4 3812   4.308   1.252   1.490
  946SOL     OW 3813   4.248   1.507   1.595
  946SOL    HW2 3814   4.266   1.421   1.558
  946SOL    HW3 3815   4.322   1.561   1.566
  946SOL    MW4 3816   4.260   1.503   1.586
  947SOL     OW 3817   4.042   1.644   1.474
  947SOL    HW2 3818   4.112   1.583   1.498
  947SOL    HW3 3819   3.967   1.615   1.526
  947SOL    MW4 3820   4.041   1.632   1.484
  948SOL     OW 3821   4.038   1.899   1.623
  948SOL    HW2 3822   4.026   1.821   1.569
  948SOL    HW3 3823   3.963   1.954   1.603
  948SOL    MW4 3824   4.026   1.896   1.613
  949SOL     OW 3825   4.222   2.053   1.491
  949SOL    HW2 3826   4.172   1.977   1.521
  949SOL    HW3 3827   4.215   2.051   1.396
  949SOL    MW4 3828   4.215   2.043   1.482
  950SOL     OW 3829   4.232   2.326   1.599
  950SOL    HW2 3830   4.206   2.324   1.692
  950SOL    HW3 3831   4.242   2.234   1.575
  950SOL    MW4 3832   4.230   2.313   1.608
  951SOL     OW 3833   4.013   2.452   1.503
  951SOL    HW2 3834   4.016   2.543   1.533
  951SOL    HW3 3835   4.087   2.410   1.547
  951SOL    MW4 3836   4.023   2.459   1.513
  952SOL     OW 3837   4.005   2.701   1.637
  952SOL    HW2 3838   3.998   2.718   1.731
  952SOL    HW3 3839   4.073   2.761   1.607
  952SOL    MW4 3840   4.013   2.711   1.645
  953SOL     OW 3841   4.223   2.848   1.532
  953SOL    HW2 3842   4.238   2.937   1.562
  953SOL    HW3 3843   4.252   2.849   1.440
  953SOL    MW4 3844   4.229   2.860   1.524
  954SOL     OW 3845   4.246   3.124   1.616
  954SOL    HW2 3846   4.247   3.132   1.712
  954SOL    HW3 3847   4.328   3.165   1.588
  954SOL    MW4 3848   4.257   3.130   1.625
  955SOL     OW 3849   4.021   3.221   1.508
  955SOL    HW2 3850   4.026   3.312   1.535
  955SOL    HW3 3851   4.107   3.185   1.526
  955SOL    MW4 3852   4.033   3.228   1.514
  956SOL     OW 3853   4.020   3.468   1.610
  956SOL    HW2 3854   4.020   3.469   1.706
  956SOL    HW3 3855   4.099   3.515   1.586
  956SOL    MW4 3856   4.030   3.475   1.620
  957SOL     OW 3857   4.238   3.594   1.502
  957SOL    HW2 3858   4.246   3.685   1.532
  957SOL    HW3 3859   4.244   3.600   1.406
  957SOL    MW4 3860   4.240   3.607   1.493
  958SOL     OW 3861   4.277   3.856   1.611
  958SOL    HW2 3862   4.190   3.885   1.586
  958SOL    HW3 3863   4.337   3.913   1.564
  958SOL    MW4 3864   4.273   3.867   1.602
  959SOL     OW 3865   4.023   3.961   1.469
  959SOL    HW2 3866   4.017   4.051   1.502
  959SOL    HW3 3867   4.039   3.972   1.375
  959SOL    MW4 3868   4.024   3.974   1.461
  960SOL     OW 3869   4.012   4.201   1.604
  960SOL    HW2 3870   4.015   4.207   1.699
  960SOL    HW3 3871   3.936   4.255   1.579
  960SOL    MW4 3872   4.002   4.209   1.613
  961SOL     OW 3873   4.214   4.381   1.533
  961SOL    HW2 3874   4.137   4.330   1.561
  961SOL    HW3 3875   4.212   4.376   1.438
  961SOL    MW4 3876   4.203   4.373   1.525
  962SOL     OW 3877   0.198   0.028   1.884
  962SOL    HW2 3878   0.276   0.069   1.923
  962SOL    HW3 3879   0.224   0.008   1.795
  962SOL    MW4 3880   0.212   0.031   1.878
  963SOL     OW 3881   4.460   0.106   2.006
  963SOL    HW2 3882   4.442   0.193   1.972
  963SOL    HW3 3883   4.543   0.080   1.966
  963SOL    MW4 3884   4.468   0.114   1.996
  964SOL     OW 3885   4.442   0.365   1.913
  964SOL    HW2 3886   4.361   0.411   1.936
  964SOL    HW3 3887   4.511   0.418   1.953
  964SOL    MW4 3888   4.440   0.378   1.921
  965SOL     OW 3889   0.174   0.487   2.018
  965SOL    HW2 3890   0.255   0.448   1.986
  965SOL    HW3 3891   0.166   0.569   1.969
  965SOL    MW4 3892   0.184   0.493   2.008
  966SOL     OW 3893   0.157   0.726   1.882
  966SOL    HW2 3894   0.225   0.772   1.932
  966SOL    HW3 3895   0.184   0.733   1.791
  966SOL    MW4 3896   0.169   0.733   1.877
  967SOL     OW 3897   4.453   0.919   1.995
  967SOL    HW2 3898   4.380   0.881   1.948
  967SOL    HW3 3899   4.524   0.855   1.986
  967SOL    MW4 3900   4.453   0.906   1.988
  968SOL     OW 3901   0.018   1.175   1.902
  968SOL    HW2 3902  -0.060   1.224   1.930
  968SOL    HW3 3903   0.007   1.088   1.939
  968SOL    MW4 3904   0.006   1.170   1.910
  969SOL     OW 3905   0.249   1.294   1.986
  969SOL    HW2 3906   0.244   1.382   1.950
  969SOL    HW3 3907   0.169   1.251   1.956
  969SOL    MW4 3908   0.238   1.300   1.977
  970SOL     OW 3909   0.229   1.548   1.870
  970SOL    HW2 3910   0.310   1.587   1.905
  970SOL    HW3 3911   0.160   1.582   1.926
  970SOL    MW4 3912   0.231   1.558   1.882
  971SOL     OW 3913   4.473   1.673   1.961
  971SOL    HW2 3914   4.477   1.659   2.055
  971SOL    HW3 3915   4.404   1.614   1.931
  971SOL    MW4 3916   4.465   1.663   1.969
  972SOL     OW 3917   4.452   1.903   1.837
  972SOL    HW2 3918   4.396   1.954   1.896
  972SOL    HW3 3919   4.463   1.818   1.881
  972SOL    MW4 3920   4.446   1.898   1.850
  973SOL     OW 3921   0.185   2.020   1.989
  973SOL    HW2 3922   0.143   2.104   1.971
  973SOL    HW3 3923   0.125   1.954   1.953
  973SOL    MW4 3924   0.172   2.022   1.982
  974SOL     OW 3925   0.163   2.296   1.883
  974SOL    HW2 3926   0.241   2.349   1.904
  974SOL    HW3 3927   0.089   2.351   1.908
  974SOL    MW4 3928   0.164   2.311   1.889
  975SOL     OW 3929   4.413   2.428   1.985
  975SOL    HW2 3930   4.439   2.422   2.077
  975SOL    HW3 3931   4.417   2.522   1.965
  975SOL    MW4 3932   4.417   2.440   1.994
  976SOL     OW 3933   4.450   2.702   1.912
  976SOL    HW2 3934   4.380   2.765   1.928
  976SOL    HW3 3935   4.473   2.714   1.820
  976SOL    MW4 3936   4.444   2.712   1.902
  977SOL     OW 3937   0.176   2.827   2.012
  977SOL    HW2 3938   0.179   2.910   1.964
  977SOL    HW3 3939   0.106   2.777   1.970
  977SOL    MW4 3940   0.168   2.831   2.000
  978SOL     OW 3941   0.227   3.065   1.860
  978SOL    HW2 3942   0.293   3.126   1.894
  978SOL    HW3 3943   0.232   3.076   1.765
  978SOL    MW4 3944   0.237   3.075   1.852
  979SOL     OW 3945   0.018   3.179   2.010
  979SOL    HW2 3946  -0.061   3.150   1.964
  979SOL    HW3 3947   0.090   3.145   1.957
  979SOL    MW4 3948   0.017   3.171   1.997
  980SOL     OW 3949   4.468   3.449   1.876
  980SOL    HW2 3950   4.541   3.501   1.911
  980SOL    HW3 3951   4.466   3.371   1.931
  980SOL    MW4 3952   4.477   3.446   1.888
  981SOL     OW 3953   0.213   3.608   1.978
  981SOL    HW2 3954   0.221   3.611   2.073
  981SOL    HW3 3955   0.289   3.558   1.949
  981SOL    MW4 3956   0.224   3.602   1.987
  982SOL     OW 3957   0.173   3.858   1.864
  982SOL    HW2 3958   0.244   3.906   1.906
  982SOL    HW3 3959   0.178   3.770   1.901
  982SOL    MW4 3960   0.183   3.853   1.874
  983SOL     OW 3961   4.453   4.010   2.009
  983SOL    HW2 3962   4.430   4.098   1.980
  983SOL    HW3 3963   4.522   3.982   1.949
  983SOL    MW4 3964   4.459   4.018   1.997
  984SOL     OW 3965   4.454   4.261   1.881
  984SOL    HW2 3966   4.382   4.316   1.910
  984SOL    HW3 3967   4.533   4.306   1.912
  984SOL    MW4 3968   4.455   4.274   1.889
  985SOL     OW 3969   0.187   4.434   1.971
  985SOL    HW2 3970   0.187   4.440   2.067
  985SOL    HW3 3971   0.177   4.524   1.941
  985SOL    MW4 3972   0.186   4.446   1.980
  986SOL     OW 3973   0.670   4.656   1.925
  986SOL    HW2 3974   0.637   4.569   1.947
  986SOL    HW3 3975   0.661   4.660   1.829
  986SOL    MW4 3976   0.664   4.645   1.915
  987SOL     OW 3977   0.446   0.116   2.003
  987SOL    HW2 3978   0.450   0.203   1.963
  987SOL    HW3 3979   0.529   0.075   1.980
  987SOL    MW4 3980   0.457   0.122   1.995
  988SOL     OW 3981   0.427   0.385   1.905
  988SOL    HW2 3982   0.512   0.429   1.914
  988SOL    HW3 3983   0.422   0.364   1.812
  988SOL    MW4 3984   0.438   0.388   1.894
  989SOL     OW 3985   0.670   0.525   1.963
  989SOL    HW2 3986   0.676   0.540   2.057
  989SOL    HW3 3987   0.741   0.462   1.944
  989SOL    MW4 3988   0.680   0.519   1.973
  990SOL     OW 3989   0.637   0.779   1.858
  990SOL    HW2 3990   0.713   0.825   1.893
  990SOL    HW3 3991   0.642   0.692   1.897
  990SOL    MW4 3992   0.648   0.774   1.868
  991SOL     OW 3993   0.395   0.862   1.984
  991SOL    HW2 3994   0.384   0.947   1.942
  991SOL    HW3 3995   0.469   0.822   1.938
  991SOL    MW4 3996   0.403   0.868   1.972
  992SOL     OW 3997   0.457   1.130   1.867
  992SOL    HW2 3998   0.390   1.186   1.906
  992SOL    HW3 3999   0.446   1.143   1.772
  992SOL    MW4 4000   0.447   1.139   1.860
  993SOL     OW 4001   0.710   1.260   1.933
  993SOL    HW2 4002   0.707   1.278   2.028
  993SOL    HW3 4003   0.635   1.203   1.917
  993SOL    MW4 4004   0.700   1.255   1.944
  994SOL     OW 4005   0.627   1.513   1.854
  994SOL    HW2 4006   0.659   1.425   1.877
  994SOL    HW3 4007   0.617   1.511   1.759
  994SOL    MW4 4008   0.630   1.501   1.845
  995SOL     OW 4009   0.444   1.669   1.965
  995SOL    HW2 4010   0.460   1.655   2.059
  995SOL    HW3 4011   0.523   1.635   1.923
  995SOL    MW4 4012   0.457   1.663   1.972
  996SOL     OW 4013   0.414   1.950   1.872
  996SOL    HW2 4014   0.408   1.859   1.903
  996SOL    HW3 4015   0.340   1.994   1.914
  996SOL    MW4 4016   0.403   1.944   1.881
  997SOL     OW 4017   0.648   2.086   1.943
  997SOL    HW2 4018   0.662   2.054   2.033
  997SOL    HW3 4019   0.560   2.055   1.920
  997SOL    MW4 4020   0.638   2.078   1.952
  998SOL     OW 4021   0.621   2.364   1.861
  998SOL    HW2 4022   0.633   2.276   1.897
  998SOL    HW3 4023   0.640   2.355   1.768
  998SOL    MW4 4024   0.626   2.351   1.854
  999SOL     OW 4025   0.383   2.448   1.971
  999SOL    HW2 4026   0.387   2.453   2.067
  999SOL    HW3 4027   0.474   2.441   1.944
  999SOL    MW4 4028   0.395   2.448   1.980
 1000SOL     OW 4029   0.387   2.703   1.898
 1000SOL    HW2 4030   0.378   2.612   1.926
 1000SOL    HW3 4031   0.312   2.747   1.938
 1000SOL    MW4 4032   0.376   2.697   1.907
 1001SOL     OW 4033   0.634   2.824   1.979
 1001SOL    HW2 4034   0.625   2.823   2.074
 1001SOL    HW3 4035   0.566   2.765   1.947
 1001SOL    MW4 4036   0.624   2.816   1.987
 1002SOL     OW 4037   0.645   3.088   1.875
 1002SOL    HW2 4038   0.653   2.994   1.891
 1002SOL    HW3 4039   0.656   3.098   1.780
 1002SOL    MW4 4040   0.647   3.077   1.865
 1003SOL     OW 4041   0.415   3.211   1.995
 1003SOL    HW2 4042   0.428   3.304   1.976
 1003SOL    HW3 4043   0.492   3.168   1.957
 1003SOL    MW4 4044   0.427   3.217   1.988
 1004SOL     OW 4045   0.448   3.482   1.908
 1004SOL    HW2 4046   0.521   3.533   1.942
 1004SOL    HW3 4047   0.462   3.481   1.813
 1004SOL    MW4 4048   0.459   3.488   1.900
 1005SOL     OW 4049   0.674   3.629   1.983
 1005SOL    HW2 4050   0.752   3.588   1.946
 1005SOL    HW3 4051   0.683   3.722   1.963
 1005SOL    MW4 4052   0.685   3.636   1.975
 1006SOL     OW 4053   0.658   3.883   1.905
 1006SOL    HW2 4054   0.721   3.950   1.933
 1006SOL    HW3 4055   0.663   3.885   1.809
 1006SOL    MW4 4056   0.667   3.892   1.896
 1007SOL     OW 4057   0.400   3.987   1.966
 1007SOL    HW2 4058   0.395   4.078   1.938
 1007SOL    HW3 4059   0.481   3.954   1.926
 1007SOL    MW4 4060   0.410   3.995   1.957
 1008SOL     OW 4061   0.409   4.253   1.907
 1008SOL    HW2 4062   0.328   4.300   1.928
 1008SOL    HW3 4063   0.415   4.257   1.812
 1008SOL    MW4 4064   0.399   4.260   1.898
 1009SOL     OW 4065   0.600   4.414   2.014
 1009SOL    HW2 4066   0.685   4.373   1.996
 1009SOL    HW3 4067   0.536   4.348   1.989
 1009SOL    MW4 4068   0.603   4.400   2.009
 1010SOL     OW 4069   1.129   0.005   1.905
 1010SOL    HW2 4070   1.205   0.043   1.949
 1010SOL    HW3 4071   1.138  -0.090   1.919
 1010SOL    MW4 4072   1.140  -0.003   1.913
 1011SOL     OW 4073   0.880   0.117   2.039
 1011SOL    HW2 4074   0.966   0.081   2.019
 1011SOL    HW3 4075   0.819   0.063   1.989
 1011SOL    MW4 4076   0.883   0.105   2.030
 1012SOL     OW 4077   0.896   0.363   1.914
 1012SOL    HW2 4078   0.976   0.405   1.945
 1012SOL    HW3 4079   0.886   0.286   1.970
 1012SOL    MW4 4080   0.905   0.359   1.926
 1013SOL     OW 4081   1.140   0.491   1.965
 1013SOL    HW2 4082   1.215   0.443   1.931
 1013SOL    HW3 4083   1.159   0.582   1.944
 1013SOL    MW4 4084   1.153   0.497   1.958
 1014SOL     OW 4085   1.150   0.750   1.924
 1014SOL    HW2 4086   1.220   0.809   1.953
 1014SOL    HW3 4087   1.069   0.799   1.939
 1014SOL    MW4 4088   1.148   0.764   1.930
 1015SOL     OW 4089   0.879   0.883   1.976
 1015SOL    HW2 4090   0.879   0.893   2.071
 1015SOL    HW3 4091   0.905   0.970   1.944
 1015SOL    MW4 4092   0.882   0.896   1.984
 1016SOL     OW 4093   0.930   1.115   1.833
 1016SOL    HW2 4094   0.849   1.155   1.864
 1016SOL    HW3 4095   0.931   1.133   1.739
 1016SOL    MW4 4096   0.919   1.122   1.824
 1017SOL     OW 4097   1.138   1.275   1.937
 1017SOL    HW2 4098   1.114   1.367   1.926
 1017SOL    HW3 4099   1.065   1.227   1.898
 1017SOL    MW4 4100   1.125   1.281   1.931
 1018SOL     OW 4101   1.071   1.542   1.882
 1018SOL    HW2 4102   0.985   1.572   1.912
 1018SOL    HW3 4103   1.070   1.556   1.787
 1018SOL    MW4 4104   1.060   1.548   1.874
 1019SOL     OW 4105   0.830   1.668   1.959
 1019SOL    HW2 4106   0.831   1.758   1.925
 1019SOL    HW3 4107   0.751   1.629   1.922
 1019SOL    MW4 4108   0.820   1.675   1.950
 1020SOL     OW 4109   0.861   1.939   1.842
 1020SOL    HW2 4110   0.795   2.006   1.862
 1020SOL    HW3 4111   0.874   1.946   1.747
 1020SOL    MW4 4112   0.854   1.949   1.832
 1021SOL     OW 4113   1.078   2.047   1.970
 1021SOL    HW2 4114   1.070   2.136   1.937
 1021SOL    HW3 4115   1.004   2.000   1.931
 1021SOL    MW4 4116   1.068   2.052   1.960
 1022SOL     OW 4117   1.057   2.308   1.860
 1022SOL    HW2 4118   1.132   2.348   1.905
 1022SOL    HW3 4119   1.087   2.299   1.769
 1022SOL    MW4 4120   1.071   2.312   1.854
 1023SOL     OW 4121   0.848   2.480   1.944
 1023SOL    HW2 4122   0.914   2.413   1.924
 1023SOL    HW3 4123   0.766   2.443   1.910
 1023SOL    MW4 4124   0.846   2.466   1.937
 1024SOL     OW 4125   0.885   2.739   1.867
 1024SOL    HW2 4126   0.892   2.644   1.878
 1024SOL    HW3 4127   0.803   2.762   1.911
 1024SOL    MW4 4128   0.875   2.729   1.874
 1025SOL     OW 4129   1.138   2.807   1.985
 1025SOL    HW2 4130   1.126   2.807   2.080
 1025SOL    HW3 4131   1.056   2.774   1.950
 1025SOL    MW4 4132   1.126   2.803   1.992
 1026SOL     OW 4133   1.134   3.070   1.893
 1026SOL    HW2 4134   1.057   3.116   1.926
 1026SOL    HW3 4135   1.130   2.984   1.935
 1026SOL    MW4 4136   1.124   3.065   1.903
 1027SOL     OW 4137   0.885   3.210   1.947
 1027SOL    HW2 4138   0.872   3.221   2.041
 1027SOL    HW3 4139   0.813   3.153   1.919
 1027SOL    MW4 4140   0.874   3.204   1.956
 1028SOL     OW 4141   0.890   3.487   1.893
 1028SOL    HW2 4142   0.902   3.393   1.907
 1028SOL    HW3 4143   0.894   3.497   1.797
 1028SOL    MW4 4144   0.892   3.476   1.882
 1029SOL     OW 4145   1.079   3.649   1.989
 1029SOL    HW2 4146   1.097   3.618   2.078
 1029SOL    HW3 4147   1.012   3.589   1.956
 1029SOL    MW4 4148   1.072   3.637   1.996
 1030SOL     OW 4149   1.096   3.912   1.900
 1030SOL    HW2 4150   1.085   3.821   1.930
 1030SOL    HW3 4151   1.115   3.904   1.807
 1030SOL    MW4 4152   1.097   3.899   1.892
 1031SOL     OW 4153   0.857   4.040   1.980
 1031SOL    HW2 4154   0.846   4.024   2.074
 1031SOL    HW3 4155   0.945   4.009   1.960
 1031SOL    MW4 4156   0.867   4.033   1.990
 1032SOL     OW 4157   0.834   4.306   1.938
 1032SOL    HW2 4158   0.922   4.342   1.952
 1032SOL    HW3 4159   0.845   4.212   1.944
 1032SOL    MW4 4160   0.847   4.299   1.941
 1033SOL     OW 4161   1.091   4.403   1.999
 1033SOL    HW2 4162   1.111   4.419   2.091
 1033SOL    HW3 4163   1.160   4.343   1.969
 1033SOL    MW4 4164   1.102   4.397   2.007
 1034SOL     OW 4165   1.565   4.663   1.876
 1034SOL    HW2 4166   1.642   4.704   1.917
 1034SOL    HW3 4167   1.565   4.573   1.909
 1034SOL    MW4 4168   1.575   4.657   1.886
 1035SOL     OW 4169   1.353   0.122   2.003
 1035SOL    HW2 4170   1.367   0.126   2.098
 1035SOL    HW3 4171   1.430   0.076   1.970
 1035SOL    MW4 4172   1.365   0.117   2.011
 1036SOL     OW 4173   1.400   0.379   1.874
 1036SOL    HW2 4174   1.383   0.292   1.910
 1036SOL    HW3 4175   1.382   0.369   1.780
 1036SOL    MW4 4176   1.395   0.366   1.866
 1037SOL     OW 4177   1.579   0.556   1.978
 1037SOL    HW2 4178   1.653   0.498   1.961
 1037SOL    HW3 4179   1.502   0.505   1.953
 1037SOL    MW4 4180   1.579   0.542   1.973
 1038SOL     OW 4181   1.587   0.828   1.906
 1038SOL    HW2 4182   1.670   0.870   1.930
 1038SOL    HW3 4183   1.588   0.746   1.954
 1038SOL    MW4 4184   1.598   0.823   1.915
 1039SOL     OW 4185   1.361   0.922   1.988
 1039SOL    HW2 4186   1.352   0.908   2.082
 1039SOL    HW3 4187   1.448   0.888   1.967
 1039SOL    MW4 4188   1.372   0.916   1.997
 1040SOL     OW 4189   1.364   1.157   1.824
 1040SOL    HW2 4190   1.353   1.076   1.873
 1040SOL    HW3 4191   1.289   1.211   1.849
 1040SOL    MW4 4192   1.353   1.154   1.834
 1041SOL     OW 4193   1.588   1.315   1.932
 1041SOL    HW2 4194   1.590   1.408   1.912
 1041SOL    HW3 4195   1.517   1.279   1.878
 1041SOL    MW4 4196   1.579   1.322   1.923
 1042SOL     OW 4197   1.574   1.574   1.821
 1042SOL    HW2 4198   1.649   1.596   1.876
 1042SOL    HW3 4199   1.498   1.589   1.877
 1042SOL    MW4 4200   1.574   1.579   1.836
 1043SOL     OW 4201   1.319   1.646   1.955
 1043SOL    HW2 4202   1.336   1.647   2.049
 1043SOL    HW3 4203   1.229   1.616   1.946
 1043SOL    MW4 4204   1.309   1.642   1.966
 1044SOL     OW 4205   1.277   1.896   1.846
 1044SOL    HW2 4206   1.284   1.811   1.890
 1044SOL    HW3 4207   1.212   1.944   1.897
 1044SOL    MW4 4208   1.270   1.892   1.859
 1045SOL     OW 4209   1.549   1.996   1.933
 1045SOL    HW2 4210   1.541   2.087   1.907
 1045SOL    HW3 4211   1.469   1.954   1.901
 1045SOL    MW4 4212   1.537   2.002   1.926
 1046SOL     OW 4213   1.516   2.280   1.872
 1046SOL    HW2 4214   1.590   2.334   1.898
 1046SOL    HW3 4215   1.518   2.279   1.776
 1046SOL    MW4 4216   1.526   2.287   1.863
 1047SOL     OW 4217   1.297   2.424   1.974
 1047SOL    HW2 4218   1.321   2.513   1.947
 1047SOL    HW3 4219   1.372   2.370   1.947
 1047SOL    MW4 4220   1.310   2.428   1.967
 1048SOL     OW 4221   1.356   2.687   1.893
 1048SOL    HW2 4222   1.272   2.720   1.923
 1048SOL    HW3 4223   1.347   2.683   1.797
 1048SOL    MW4 4224   1.344   2.691   1.884
 1049SOL     OW 4225   1.570   2.829   2.018
 1049SOL    HW2 4226   1.642   2.782   1.978
 1049SOL    HW3 4227   1.491   2.788   1.982
 1049SOL    MW4 4228   1.569   2.818   2.008
 1050SOL     OW 4229   1.564   3.098   1.929
 1050SOL    HW2 4230   1.546   3.005   1.945
 1050SOL    HW3 4231   1.556   3.107   1.834
 1050SOL    MW4 4232   1.560   3.087   1.918
 1051SOL     OW 4233   1.322   3.257   1.991
 1051SOL    HW2 4234   1.402   3.209   1.966
 1051SOL    HW3 4235   1.252   3.212   1.943
 1051SOL    MW4 4236   1.323   3.244   1.981
 1052SOL     OW 4237   1.313   3.525   1.882
 1052SOL    HW2 4238   1.312   3.445   1.935
 1052SOL    HW3 4239   1.235   3.573   1.908
 1052SOL    MW4 4240   1.303   3.521   1.892
 1053SOL     OW 4241   1.568   3.617   1.958
 1053SOL    HW2 4242   1.568   3.584   2.048
 1053SOL    HW3 4243   1.485   3.587   1.921
 1053SOL    MW4 4244   1.557   3.609   1.965
 1054SOL     OW 4245   1.576   3.871   1.914
 1054SOL    HW2 4246   1.658   3.908   1.948
 1054SOL    HW3 4247   1.586   3.777   1.924
 1054SOL    MW4 4248   1.588   3.864   1.920
 1055SOL     OW 4249   1.341   4.025   1.960
 1055SOL    HW2 4250   1.418   3.970   1.942
 1055SOL    HW3 4251   1.266   3.968   1.943
 1055SOL    MW4 4252   1.342   4.011   1.956
 1056SOL     OW 4253   1.301   4.274   1.879
 1056SOL    HW2 4254   1.315   4.182   1.901
 1056SOL    HW3 4255   1.300   4.276   1.783
 1056SOL    MW4 4256   1.303   4.262   1.869
 1057SOL     OW 4257   1.548   4.387   1.946
 1057SOL    HW2 4258   1.553   4.363   2.039
 1057SOL    HW3 4259   1.463   4.352   1.918
 1057SOL    MW4 4260   1.537   4.379   1.954
 1058SOL     OW 4261   1.968   4.654   1.872
 1058SOL    HW2 4262   2.046   4.687   1.916
 1058SOL    HW3 4263   1.951   4.569   1.914
 1058SOL    MW4 4264   1.976   4.647   1.883
 1059SOL     OW 4265   1.766   0.131   1.983
 1059SOL    HW2 4266   1.770   0.125   2.079
 1059SOL    HW3 4267   1.851   0.097   1.954
 1059SOL    MW4 4268   1.778   0.125   1.992
 1060SOL     OW 4269   1.788   0.397   1.916
 1060SOL    HW2 4270   1.779   0.306   1.946
 1060SOL    HW3 4271   1.788   0.391   1.821
 1060SOL    MW4 4272   1.787   0.384   1.908
 1061SOL     OW 4273   2.042   0.497   1.973
 1061SOL    HW2 4274   2.041   0.585   1.936
 1061SOL    HW3 4275   1.953   0.464   1.960
 1061SOL    MW4 4276   2.030   0.504   1.966
 1062SOL     OW 4277   2.033   0.773   1.897
 1062SOL    HW2 4278   2.107   0.825   1.929
 1062SOL    HW3 4279   2.035   0.783   1.802
 1062SOL    MW4 4280   2.043   0.781   1.889
 1063SOL     OW 4281   1.814   0.920   2.010
 1063SOL    HW2 4282   1.821   1.004   1.963
 1063SOL    HW3 4283   1.889   0.869   1.979
 1063SOL    MW4 4284   1.825   0.925   2.000
 1064SOL     OW 4285   1.815   1.164   1.879
 1064SOL    HW2 4286   1.737   1.213   1.905
 1064SOL    HW3 4287   1.801   1.144   1.787
 1064SOL    MW4 4288   1.803   1.168   1.870
 1065SOL     OW 4289   2.036   1.255   2.010
 1065SOL    HW2 4290   2.119   1.213   1.985
 1065SOL    HW3 4291   1.971   1.217   1.951
 1065SOL    MW4 4292   2.039   1.244   1.999
 1066SOL     OW 4293   2.034   1.523   1.949
 1066SOL    HW2 4294   2.045   1.429   1.966
 1066SOL    HW3 4295   2.013   1.528   1.856
 1066SOL    MW4 4296   2.033   1.511   1.939
 1067SOL     OW 4297   1.792   1.631   1.995
 1067SOL    HW2 4298   1.796   1.726   1.979
 1067SOL    HW3 4299   1.881   1.601   1.978
 1067SOL    MW4 4300   1.804   1.640   1.991
 1068SOL     OW 4301   1.796   1.892   1.899
 1068SOL    HW2 4302   1.718   1.935   1.936
 1068SOL    HW3 4303   1.782   1.894   1.804
 1068SOL    MW4 4304   1.784   1.898   1.891
 1069SOL     OW 4305   2.023   2.028   2.018
 1069SOL    HW2 4306   2.103   1.982   1.992
 1069SOL    HW3 4307   1.953   1.985   1.968
 1069SOL    MW4 4308   2.024   2.016   2.008
 1070SOL     OW 4309   1.982   2.271   1.894
 1070SOL    HW2 4310   2.050   2.328   1.929
 1070SOL    HW3 4311   1.999   2.186   1.934
 1070SOL    MW4 4312   1.993   2.267   1.904
 1071SOL     OW 4313   1.751   2.404   1.939
 1071SOL    HW2 4314   1.754   2.416   2.034
 1071SOL    HW3 4315   1.830   2.354   1.919
 1071SOL    MW4 4316   1.762   2.399   1.949
 1072SOL     OW 4317   1.784   2.671   1.897
 1072SOL    HW2 4318   1.782   2.576   1.893
 1072SOL    HW3 4319   1.772   2.699   1.806
 1072SOL    MW4 4320   1.782   2.662   1.885
 1073SOL     OW 4321   2.002   2.835   1.978
 1073SOL    HW2 4322   2.006   2.832   2.073
 1073SOL    HW3 4323   1.929   2.777   1.955
 1073SOL    MW4 4324   1.993   2.827   1.987
 1074SOL     OW 4325   1.999   3.115   1.898
 1074SOL    HW2 4326   1.923   3.161   1.933
 1074SOL    HW3 4327   1.981   3.022   1.914
 1074SOL    MW4 4328   1.987   3.109   1.905
 1075SOL     OW 4329   1.771   3.262   1.995
 1075SOL    HW2 4330   1.792   3.254   2.088
 1075SOL    HW3 4331   1.699   3.200   1.981
 1075SOL    MW4 4332   1.764   3.253   2.005
 1076SOL     OW 4333   1.801   3.490   1.851
 1076SOL    HW2 4334   1.788   3.414   1.907
 1076SOL    HW3 4335   1.735   3.553   1.881
 1076SOL    MW4 4336   1.791   3.489   1.862
 1077SOL     OW 4337   2.030   3.571   2.005
 1077SOL    HW2 4338   2.036   3.659   1.968
 1077SOL    HW3 4339   1.949   3.535   1.967
 1077SOL    MW4 4340   2.020   3.578   1.995
 1078SOL     OW 4341   2.044   3.832   1.905
 1078SOL    HW2 4342   2.108   3.894   1.941
 1078SOL    HW3 4343   2.046   3.848   1.811
 1078SOL    MW4 4344   2.053   3.842   1.898
 1079SOL     OW 4345   1.814   3.965   2.009
 1079SOL    HW2 4346   1.807   4.052   1.969
 1079SOL    HW3 4347   1.880   3.920   1.957
 1079SOL    MW4 4348   1.822   3.971   1.997
 1080SOL     OW 4349   1.766   4.219   1.886
 1080SOL    HW2 4350   1.680   4.261   1.892
 1080SOL    HW3 4351   1.797   4.240   1.797
 1080SOL    MW4 4352   1.759   4.228   1.875
 1081SOL     OW 4353   1.961   4.401   1.983
 1081SOL    HW2 4354   2.035   4.359   1.939
 1081SOL    HW3 4355   1.887   4.343   1.967
 1081SOL    MW4 4356   1.961   4.388   1.975
 1082SOL     OW 4357   2.439   4.654   1.882
 1082SOL    HW2 4358   2.515   4.703   1.911
 1082SOL    HW3 4359   2.445   4.570   1.927
 1082SOL    MW4 4360   2.450   4.649   1.891
 1083SOL     OW 4361   2.198   0.075   1.992
 1083SOL    HW2 4362   2.209   0.084   2.087
 1083SOL    HW3 4363   2.282   0.039   1.962
 1083SOL    MW4 4364   2.211   0.072   2.001
 1084SOL     OW 4365   2.250   0.337   1.892
 1084SOL    HW2 4366   2.227   0.248   1.919
 1084SOL    HW3 4367   2.183   0.393   1.933
 1084SOL    MW4 4368   2.238   0.333   1.901
 1085SOL     OW 4369   2.502   0.471   1.971
 1085SOL    HW2 4370   2.574   0.419   1.935
 1085SOL    HW3 4371   2.423   0.419   1.952
 1085SOL    MW4 4372   2.501   0.457   1.964
 1086SOL     OW 4373   2.507   0.743   1.897
 1086SOL    HW2 4374   2.513   0.650   1.920
 1086SOL    HW3 4375   2.518   0.744   1.802
 1086SOL    MW4 4376   2.510   0.731   1.888
 1087SOL     OW 4377   2.268   0.874   2.015
 1087SOL    HW2 4378   2.262   0.872   2.110
 1087SOL    HW3 4379   2.344   0.821   1.994
 1087SOL    MW4 4380   2.277   0.867   2.025
 1088SOL     OW 4381   2.272   1.134   1.908
 1088SOL    HW2 4382   2.348   1.190   1.927
 1088SOL    HW3 4383   2.290   1.053   1.955
 1088SOL    MW4 4384   2.285   1.131   1.916
 1089SOL     OW 4385   2.468   1.316   1.966
 1089SOL    HW2 4386   2.479   1.298   2.059
 1089SOL    HW3 4387   2.472   1.411   1.959
 1089SOL    MW4 4388   2.470   1.326   1.977
 1090SOL     OW 4389   2.490   1.590   1.914
 1090SOL    HW2 4390   2.400   1.599   1.945
 1090SOL    HW3 4391   2.484   1.600   1.819
 1090SOL    MW4 4392   2.477   1.592   1.906
 1091SOL     OW 4393   2.260   1.702   1.999
 1091SOL    HW2 4394   2.270   1.704   2.094
 1091SOL    HW3 4395   2.185   1.644   1.984
 1091SOL    MW4 4396   2.251   1.695   2.009
 1092SOL     OW 4397   2.263   1.953   1.913
 1092SOL    HW2 4398   2.327   2.009   1.957
 1092SOL    HW3 4399   2.275   1.867   1.953
 1092SOL    MW4 4400   2.273   1.949   1.924
 1093SOL     OW 4401   2.494   2.072   2.009
 1093SOL    HW2 4402   2.564   2.019   1.972
 1093SOL    HW3 4403   2.485   2.145   1.948
 1093SOL    MW4 4404   2.502   2.075   1.996
 1094SOL     OW 4405   2.457   2.298   1.869
 1094SOL    HW2 4406   2.531   2.350   1.903
 1094SOL    HW3 4407   2.379   2.344   1.900
 1094SOL    MW4 4408   2.457   2.311   1.878
 1095SOL     OW 4409   2.208   2.442   1.965
 1095SOL    HW2 4410   2.248   2.448   2.052
 1095SOL    HW3 4411   2.219   2.530   1.928
 1095SOL    MW4 4412   2.215   2.455   1.971
 1096SOL     OW 4413   2.232   2.698   1.887
 1096SOL    HW2 4414   2.149   2.737   1.914
 1096SOL    HW3 4415   2.236   2.713   1.793
 1096SOL    MW4 4416   2.222   2.705   1.878
 1097SOL     OW 4417   2.455   2.794   2.022
 1097SOL    HW2 4418   2.481   2.880   1.988
 1097SOL    HW3 4419   2.368   2.780   1.985
 1097SOL    MW4 4420   2.447   2.804   2.013
 1098SOL     OW 4421   2.460   3.012   1.859
 1098SOL    HW2 4422   2.396   3.080   1.883
 1098SOL    HW3 4423   2.456   3.008   1.764
 1098SOL    MW4 4424   2.451   3.021   1.850
 1099SOL     OW 4425   2.253   3.188   1.977
 1099SOL    HW2 4426   2.242   3.203   2.071
 1099SOL    HW3 4427   2.167   3.155   1.948
 1099SOL    MW4 4428   2.240   3.186   1.985
 1100SOL     OW 4429   2.260   3.441   1.870
 1100SOL    HW2 4430   2.267   3.349   1.894
 1100SOL    HW3 4431   2.190   3.476   1.926
 1100SOL    MW4 4432   2.252   3.434   1.881
 1101SOL     OW 4433   2.463   3.612   1.987
 1101SOL    HW2 4434   2.470   3.582   2.078
 1101SOL    HW3 4435   2.388   3.564   1.952
 1101SOL    MW4 4436   2.454   3.601   1.995
 1102SOL     OW 4437   2.472   3.863   1.846
 1102SOL    HW2 4438   2.406   3.925   1.877
 1102SOL    HW3 4439   2.464   3.788   1.904
 1102SOL    MW4 4440   2.462   3.861   1.857
 1103SOL     OW 4441   2.257   4.021   1.965
 1103SOL    HW2 4442   2.259   4.023   2.061
 1103SOL    HW3 4443   2.256   4.113   1.939
 1103SOL    MW4 4444   2.257   4.034   1.974
 1104SOL     OW 4445   2.211   4.281   1.885
 1104SOL    HW2 4446   2.288   4.330   1.913
 1104SOL    HW3 4447   2.210   4.289   1.790
 1104SOL    MW4 4448   2.221   4.288   1.876
 1105SOL     OW 4449   2.451   4.383   1.974
 1105SOL    HW2 4450   2.462   4.395   2.069
 1105SOL    HW3 4451   2.536   4.348   1.945
 1105SOL    MW4 4452   2.464   4.380   1.983
 1106SOL     OW 4453   2.909   4.658   1.863
 1106SOL    HW2 4454   2.989   4.700   1.893
 1106SOL    HW3 4455   2.919   4.566   1.888
 1106SOL    MW4 4456   2.921   4.652   1.870
 1107SOL     OW 4457   2.673   0.100   1.964
 1107SOL    HW2 4458   2.674   0.096   2.059
 1107SOL    HW3 4459   2.761   0.072   1.938
 1107SOL    MW4 4460   2.685   0.096   1.973
 1108SOL     OW 4461   2.705   0.343   1.830
 1108SOL    HW2 4462   2.777   0.386   1.876
 1108SOL    HW3 4463   2.697   0.258   1.872
 1108SOL    MW4 4464   2.714   0.338   1.841
 1109SOL     OW 4465   2.923   0.462   1.971
 1109SOL    HW2 4466   3.009   0.438   1.939
 1109SOL    HW3 4467   2.918   0.557   1.959
 1109SOL    MW4 4468   2.933   0.472   1.965
 1110SOL     OW 4469   2.910   0.728   1.869
 1110SOL    HW2 4470   2.996   0.769   1.877
 1110SOL    HW3 4471   2.850   0.791   1.910
 1110SOL    MW4 4472   2.913   0.742   1.876
 1111SOL     OW 4473   2.733   0.893   1.983
 1111SOL    HW2 4474   2.724   0.979   1.942
 1111SOL    HW3 4475   2.653   0.846   1.959
 1111SOL    MW4 4476   2.721   0.898   1.974
 1112SOL     OW 4477   2.646   1.139   1.862
 1112SOL    HW2 4478   2.568   1.189   1.883
 1112SOL    HW3 4479   2.667   1.162   1.771
 1112SOL    MW4 4480   2.639   1.148   1.853
 1113SOL     OW 4481   2.894   1.265   1.953
 1113SOL    HW2 4482   2.894   1.353   1.914
 1113SOL    HW3 4483   2.808   1.229   1.931
 1113SOL    MW4 4484   2.883   1.272   1.945
 1114SOL     OW 4485   2.922   1.533   1.847
 1114SOL    HW2 4486   3.003   1.565   1.887
 1114SOL    HW3 4487   2.933   1.551   1.753
 1114SOL    MW4 4488   2.934   1.539   1.840
 1115SOL     OW 4489   2.732   1.694   1.973
 1115SOL    HW2 4490   2.799   1.638   1.934
 1115SOL    HW3 4491   2.650   1.645   1.961
 1115SOL    MW4 4492   2.730   1.680   1.967
 1116SOL     OW 4493   2.693   1.948   1.864
 1116SOL    HW2 4494   2.759   1.990   1.920
 1116SOL    HW3 4495   2.700   1.855   1.886
 1116SOL    MW4 4496   2.702   1.941   1.875
 1117SOL     OW 4497   2.906   2.066   1.983
 1117SOL    HW2 4498   2.916   2.061   2.078
 1117SOL    HW3 4499   2.965   1.999   1.949
 1117SOL    MW4 4500   2.915   2.056   1.991
 1118SOL     OW 4501   2.912   2.312   1.853
 1118SOL    HW2 4502   2.987   2.346   1.901
 1118SOL    HW3 4503   2.885   2.234   1.903
 1118SOL    MW4 4504   2.918   2.306   1.866
 1119SOL     OW 4505   2.679   2.431   1.995
 1119SOL    HW2 4506   2.674   2.522   1.967
 1119SOL    HW3 4507   2.759   2.397   1.953
 1119SOL    MW4 4508   2.689   2.438   1.986
 1120SOL     OW 4509   2.659   2.680   1.889
 1120SOL    HW2 4510   2.578   2.713   1.929
 1120SOL    HW3 4511   2.645   2.689   1.795
 1120SOL    MW4 4512   2.646   2.685   1.882
 1121SOL     OW 4513   2.862   2.826   1.991
 1121SOL    HW2 4514   2.874   2.880   1.913
 1121SOL    HW3 4515   2.795   2.763   1.966
 1121SOL    MW4 4516   2.855   2.825   1.978
 1122SOL     OW 4517   2.919   3.061   1.832
 1122SOL    HW2 4518   2.988   3.103   1.884
 1122SOL    HW3 4519   2.839   3.081   1.880
 1122SOL    MW4 4520   2.918   3.069   1.845
 1123SOL     OW 4521   2.689   3.176   1.942
 1123SOL    HW2 4522   2.701   3.263   1.905
 1123SOL    HW3 4523   2.600   3.151   1.917
 1123SOL    MW4 4524   2.679   3.184   1.934
 1124SOL     OW 4525   2.688   3.495   1.889
 1124SOL    HW2 4526   2.752   3.537   1.946
 1124SOL    HW3 4527   2.604   3.529   1.918
 1124SOL    MW4 4528   2.686   3.505   1.900
 1125SOL     OW 4529   2.939   3.586   1.982
 1125SOL    HW2 4530   2.956   3.577   2.076
 1125SOL    HW3 4531   3.010   3.538   1.940
 1125SOL    MW4 4532   2.951   3.578   1.989
 1126SOL     OW 4533   2.908   3.862   1.901
 1126SOL    HW2 4534   2.907   3.771   1.933
 1126SOL    HW3 4535   2.900   3.854   1.806
 1126SOL    MW4 4536   2.907   3.849   1.893
 1127SOL     OW 4537   2.683   4.008   1.993
 1127SOL    HW2 4538   2.772   3.975   1.976
 1127SOL    HW3 4539   2.626   3.952   1.939
 1127SOL    MW4 4540   2.687   3.996   1.983
 1128SOL     OW 4541   2.681   4.256   1.863
 1128SOL    HW2 4542   2.692   4.172   1.907
 1128SOL    HW3 4543   2.674   4.234   1.770
 1128SOL    MW4 4544   2.682   4.242   1.857
 1129SOL     OW 4545   2.912   4.394   1.962
 1129SOL    HW2 4546   2.896   4.392   2.056
 1129SOL    HW3 4547   2.831   4.361   1.923
 1129SOL    MW4 4548   2.899   4.389   1.969
 1130SOL     OW 4549   3.353   4.664   1.897
 1130SOL    HW2 4550   3.348   4.574   1.931
 1130SOL    HW3 4551   3.373   4.654   1.804
 1130SOL    MW4 4552   3.355   4.651   1.889
 1131SOL     OW 4553   3.127   0.126   1.943
 1131SOL    HW2 4554   3.134   0.142   2.037
 1131SOL    HW3 4555   3.210   0.085   1.919
 1131SOL    MW4 4556   3.139   0.123   1.953
 1132SOL     OW 4557   3.155   0.381   1.860
 1132SOL    HW2 4558   3.133   0.293   1.892
 1132SOL    HW3 4559   3.152   0.374   1.765
 1132SOL    MW4 4560   3.152   0.368   1.852
 1133SOL     OW 4561   3.347   0.544   1.972
 1133SOL    HW2 4562   3.426   0.493   1.951
 1133SOL    HW3 4563   3.276   0.495   1.931
 1133SOL    MW4 4564   3.348   0.531   1.964
 1134SOL     OW 4565   3.350   0.790   1.840
 1134SOL    HW2 4566   3.269   0.829   1.874
 1134SOL    HW3 4567   3.348   0.700   1.873
 1134SOL    MW4 4568   3.339   0.783   1.849
 1135SOL     OW 4569   3.112   0.890   1.947
 1135SOL    HW2 4570   3.099   0.897   2.041
 1135SOL    HW3 4571   3.110   0.981   1.915
 1135SOL    MW4 4572   3.110   0.903   1.955
 1136SOL     OW 4573   3.122   1.147   1.845
 1136SOL    HW2 4574   3.189   1.178   1.906
 1136SOL    HW3 4575   3.044   1.198   1.867
 1136SOL    MW4 4576   3.121   1.158   1.856
 1137SOL     OW 4577   3.336   1.272   1.974
 1137SOL    HW2 4578   3.350   1.268   2.069
 1137SOL    HW3 4579   3.345   1.365   1.953
 1137SOL    MW4 4580   3.339   1.284   1.984
 1138SOL     OW 4581   3.386   1.549   1.847
 1138SOL    HW2 4582   3.458   1.588   1.896
 1138SOL    HW3 4583   3.307   1.582   1.889
 1138SOL    MW4 4584   3.385   1.558   1.859
 1139SOL     OW 4585   3.148   1.633   1.943
 1139SOL    HW2 4586   3.152   1.635   2.039
 1139SOL    HW3 4587   3.145   1.725   1.918
 1139SOL    MW4 4588   3.148   1.645   1.953
 1140SOL     OW 4589   3.096   1.887   1.844
 1140SOL    HW2 4590   3.176   1.932   1.871
 1140SOL    HW3 4591   3.098   1.891   1.748
 1140SOL    MW4 4592   3.107   1.893   1.835
 1141SOL     OW 4593   3.320   1.998   1.966
 1141SOL    HW2 4594   3.406   1.971   1.933
 1141SOL    HW3 4595   3.313   2.090   1.940
 1141SOL    MW4 4596   3.331   2.007   1.958
 1142SOL     OW 4597   3.357   2.271   1.880
 1142SOL    HW2 4598   3.285   2.320   1.920
 1142SOL    HW3 4599   3.350   2.290   1.787
 1142SOL    MW4 4600   3.347   2.280   1.873
 1143SOL     OW 4601   3.142   2.438   1.971
 1143SOL    HW2 4602   3.133   2.448   2.066
 1143SOL    HW3 4603   3.130   2.527   1.937
 1143SOL    MW4 4604   3.139   2.451   1.979
 1144SOL     OW 4605   3.091   2.693   1.883
 1144SOL    HW2 4606   3.006   2.726   1.914
 1144SOL    HW3 4607   3.087   2.704   1.788
 1144SOL    MW4 4608   3.079   2.699   1.875
 1145SOL     OW 4609   3.327   2.822   1.979
 1145SOL    HW2 4610   3.336   2.818   2.074
 1145SOL    HW3 4611   3.249   2.770   1.961
 1145SOL    MW4 4612   3.318   2.815   1.989
 1146SOL     OW 4613   3.364   3.077   1.882
 1146SOL    HW2 4614   3.441   3.113   1.926
 1146SOL    HW3 4615   3.360   2.986   1.912
 1146SOL    MW4 4616   3.374   3.069   1.892
 1147SOL     OW 4617   3.137   3.211   1.969
 1147SOL    HW2 4618   3.148   3.305   1.955
 1147SOL    HW3 4619   3.216   3.172   1.931
 1147SOL    MW4 4620   3.149   3.218   1.962
 1148SOL     OW 4621   3.169   3.467   1.874
 1148SOL    HW2 4622   3.249   3.508   1.907
 1148SOL    HW3 4623   3.172   3.481   1.780
 1148SOL    MW4 4624   3.180   3.474   1.866
 1149SOL     OW 4625   3.400   3.593   2.010
 1149SOL    HW2 4626   3.467   3.550   1.956
 1149SOL    HW3 4627   3.394   3.682   1.975
 1149SOL    MW4 4628   3.408   3.599   1.998
 1150SOL     OW 4629   3.345   3.833   1.893
 1150SOL    HW2 4630   3.269   3.889   1.905
 1150SOL    HW3 4631   3.351   3.821   1.798
 1150SOL    MW4 4632   3.336   3.839   1.882
 1151SOL     OW 4633   3.144   4.001   1.942
 1151SOL    HW2 4634   3.136   4.011   2.037
 1151SOL    HW3 4635   3.063   3.956   1.916
 1151SOL    MW4 4636   3.132   3.996   1.951
 1152SOL     OW 4637   3.131   4.273   1.844
 1152SOL    HW2 4638   3.140   4.192   1.895
 1152SOL    HW3 4639   3.051   4.313   1.879
 1152SOL    MW4 4640   3.121   4.267   1.855
 1153SOL     OW 4641   3.367   4.391   1.954
 1153SOL    HW2 4642   3.440   4.338   1.920
 1153SOL    HW3 4643   3.289   4.352   1.914
 1153SOL    MW4 4644   3.366   4.379   1.944
 1154SOL     OW 4645   3.845   4.633   1.905
 1154SOL    HW2 4646   3.815   4.543   1.921
 1154SOL    HW3 4647   3.765   4.685   1.909
 1154SOL    MW4 4648   3.830   4.628   1.907
 1155SOL     OW 4649   3.610   0.109   1.982
 1155SOL    HW2 4650   3.606   0.107   2.077
 1155SOL    HW3 4651   3.523   0.082   1.954
 1155SOL    MW4 4652   3.598   0.105   1.991
 1156SOL     OW 4653   3.579   0.399   1.905
 1156SOL    HW2 4654   3.564   0.313   1.944
 1156SOL    HW3 4655   3.578   0.383   1.810
 1156SOL    MW4 4656   3.577   0.386   1.897
 1157SOL     OW 4657   3.799   0.504   2.010
 1157SOL    HW2 4658   3.798   0.589   1.966
 1157SOL    HW3 4659   3.716   0.464   1.987
 1157SOL    MW4 4660   3.788   0.510   2.001
 1158SOL     OW 4661   3.813   0.752   1.897
 1158SOL    HW2 4662   3.730   0.792   1.922
 1158SOL    HW3 4663   3.826   0.779   1.806
 1158SOL    MW4 4664   3.804   0.761   1.888
 1159SOL     OW 4665   3.585   0.878   1.993
 1159SOL    HW2 4666   3.584   0.970   1.964
 1159SOL    HW3 4667   3.503   0.841   1.960
 1159SOL    MW4 4668   3.574   0.885   1.985
 1160SOL     OW 4669   3.559   1.131   1.905
 1160SOL    HW2 4670   3.479   1.180   1.926
 1160SOL    HW3 4671   3.569   1.141   1.810
 1160SOL    MW4 4672   3.550   1.139   1.895
 1161SOL     OW 4673   3.768   1.306   1.985
 1161SOL    HW2 4674   3.785   1.308   2.079
 1161SOL    HW3 4675   3.697   1.243   1.975
 1161SOL    MW4 4676   3.761   1.298   1.996
 1162SOL     OW 4677   3.813   1.543   1.875
 1162SOL    HW2 4678   3.891   1.583   1.914
 1162SOL    HW3 4679   3.816   1.452   1.904
 1162SOL    MW4 4680   3.824   1.536   1.884
 1163SOL     OW 4681   3.593   1.657   2.007
 1163SOL    HW2 4682   3.580   1.742   1.964
 1163SOL    HW3 4683   3.663   1.615   1.958
 1163SOL    MW4 4684   3.601   1.663   1.995
 1164SOL     OW 4685   3.569   1.897   1.896
 1164SOL    HW2 4686   3.645   1.950   1.919
 1164SOL    HW3 4687   3.572   1.889   1.801
 1164SOL    MW4 4688   3.579   1.903   1.887
 1165SOL     OW 4689   3.782   2.033   1.965
 1165SOL    HW2 4690   3.873   2.008   1.950
 1165SOL    HW3 4691   3.776   2.124   1.934
 1165SOL    MW4 4692   3.793   2.042   1.959
 1166SOL     OW 4693   3.769   2.306   1.893
 1166SOL    HW2 4694   3.844   2.360   1.918
 1166SOL    HW3 4695   3.694   2.347   1.937
 1166SOL    MW4 4696   3.769   2.319   1.902
 1167SOL     OW 4697   3.543   2.431   1.997
 1167SOL    HW2 4698   3.529   2.517   1.959
 1167SOL    HW3 4699   3.477   2.375   1.956
 1167SOL    MW4 4700   3.532   2.435   1.987
 1168SOL     OW 4701   3.528   2.676   1.861
 1168SOL    HW2 4702   3.595   2.719   1.914
 1168SOL    HW3 4703   3.446   2.712   1.892
 1168SOL    MW4 4704   3.526   2.686   1.872
 1169SOL     OW 4705   3.744   2.808   1.992
 1169SOL    HW2 4706   3.741   2.819   2.087
 1169SOL    HW3 4707   3.750   2.898   1.958
 1169SOL    MW4 4708   3.744   2.822   2.000
 1170SOL     OW 4709   3.799   3.087   1.924
 1170SOL    HW2 4710   3.725   3.133   1.963
 1170SOL    HW3 4711   3.781   3.088   1.830
 1170SOL    MW4 4712   3.787   3.093   1.916
 1171SOL     OW 4713   3.578   3.214   2.000
 1171SOL    HW2 4714   3.569   3.235   2.093
 1171SOL    HW3 4715   3.582   3.299   1.957
 1171SOL    MW4 4716   3.578   3.228   2.007
 1172SOL     OW 4717   3.602   3.455   1.873
 1172SOL    HW2 4718   3.667   3.515   1.910
 1172SOL    HW3 4719   3.599   3.478   1.780
 1172SOL    MW4 4720   3.610   3.466   1.865
 1173SOL     OW 4721   3.812   3.635   2.009
 1173SOL    HW2 4722   3.889   3.585   1.981
 1173SOL    HW3 4723   3.817   3.716   1.959
 1173SOL    MW4 4724   3.823   3.639   1.999
 1174SOL     OW 4725   3.810   3.873   1.866
 1174SOL    HW2 4726   3.732   3.915   1.902
 1174SOL    HW3 4727   3.799   3.879   1.771
 1174SOL    MW4 4728   3.798   3.879   1.858
 1175SOL     OW 4729   3.567   3.963   1.969
 1175SOL    HW2 4730   3.577   3.975   2.064
 1175SOL    HW3 4731   3.497   3.899   1.960
 1175SOL    MW4 4732   3.559   3.956   1.980
 1176SOL     OW 4733   3.574   4.218   1.847
 1176SOL    HW2 4734   3.650   4.261   1.886
 1176SOL    HW3 4735   3.572   4.131   1.888
 1176SOL    MW4 4736   3.584   4.212   1.858
 1177SOL     OW 4737   3.793   4.370   1.950
 1177SOL    HW2 4738   3.796   4.378   2.045
 1177SOL    HW3 4739   3.875   4.325   1.927
 1177SOL    MW4 4740   3.805   4.365   1.960
 1178SOL     OW 4741   4.254   4.651   1.877
 1178SOL    HW2 4742   4.183   4.688   1.929
 1178SOL    HW3 4743   4.334   4.681   1.920
 1178SOL    MW4 4744   4.255   4.660   1.890
 1179SOL     OW 4745   4.068   0.117   2.018
 1179SOL    HW2 4746   4.066   0.108   2.113
 1179SOL    HW3 4747   3.986   0.076   1.988
 1179SOL    MW4 4748   4.057   0.111   2.026
 1180SOL     OW 4749   3.996   0.355   1.883
 1180SOL    HW2 4750   4.019   0.278   1.935
 1180SOL    HW3 4751   3.921   0.392   1.929
 1180SOL    MW4 4752   3.989   0.350   1.896
 1181SOL     OW 4753   4.222   0.511   2.000
 1181SOL    HW2 4754   4.213   0.488   2.092
 1181SOL    HW3 4755   4.143   0.478   1.958
 1181SOL    MW4 4756   4.211   0.504   2.007
 1182SOL     OW 4757   4.233   0.785   1.902
 1182SOL    HW2 4758   4.229   0.696   1.936
 1182SOL    HW3 4759   4.239   0.774   1.807
 1182SOL    MW4 4760   4.233   0.772   1.894
 1183SOL     OW 4761   4.018   0.916   1.997
 1183SOL    HW2 4762   4.090   0.866   1.959
 1183SOL    HW3 4763   3.939   0.866   1.972
 1183SOL    MW4 4764   4.017   0.902   1.989
 1184SOL     OW 4765   3.984   1.156   1.867
 1184SOL    HW2 4766   3.988   1.072   1.912
 1184SOL    HW3 4767   3.920   1.207   1.917
 1184SOL    MW4 4768   3.976   1.152   1.879
 1185SOL     OW 4769   4.243   1.265   2.003
 1185SOL    HW2 4770   4.240   1.277   2.098
 1185SOL    HW3 4771   4.166   1.211   1.984
 1185SOL    MW4 4772   4.232   1.259   2.013
 1186SOL     OW 4773   4.259   1.523   1.887
 1186SOL    HW2 4774   4.254   1.432   1.915
 1186SOL    HW3 4775   4.258   1.519   1.791
 1186SOL    MW4 4776   4.258   1.511   1.878
 1187SOL     OW 4777   4.054   1.660   2.015
 1187SOL    HW2 4778   4.057   1.651   2.110
 1187SOL    HW3 4779   4.127   1.606   1.984
 1187SOL    MW4 4780   4.064   1.652   2.023
 1188SOL     OW 4781   4.029   1.922   1.907
 1188SOL    HW2 4782   4.030   1.835   1.948
 1188SOL    HW3 4783   4.035   1.904   1.813
 1188SOL    MW4 4784   4.030   1.908   1.900
 1189SOL     OW 4785   4.265   2.041   1.986
 1189SOL    HW2 4786   4.279   2.034   2.081
 1189SOL    HW3 4787   4.190   1.985   1.969
 1189SOL    MW4 4788   4.257   2.033   1.997
 1190SOL     OW 4789   4.204   2.294   1.875
 1190SOL    HW2 4790   4.220   2.205   1.906
 1190SOL    HW3 4791   4.278   2.345   1.908
 1190SOL    MW4 4792   4.216   2.289   1.883
 1191SOL     OW 4793   3.985   2.451   1.961
 1191SOL    HW2 4794   3.974   2.430   2.054
 1191SOL    HW3 4795   4.055   2.393   1.931
 1191SOL    MW4 4796   3.992   2.441   1.969
 1192SOL     OW 4797   4.009   2.736   1.921
 1192SOL    HW2 4798   4.028   2.643   1.930
 1192SOL    HW3 4799   3.918   2.744   1.948
 1192SOL    MW4 4800   4.000   2.725   1.925
 1193SOL     OW 4801   4.247   2.878   1.976
 1193SOL    HW2 4802   4.255   2.886   2.071
 1193SOL    HW3 4803   4.165   2.831   1.963
 1193SOL    MW4 4804   4.237   2.873   1.987
 1194SOL     OW 4805   4.254   3.127   1.885
 1194SOL    HW2 4806   4.178   3.168   1.927
 1194SOL    HW3 4807   4.246   3.034   1.908
 1194SOL    MW4 4808   4.243   3.120   1.893
 1195SOL     OW 4809   4.036   3.217   2.024
 1195SOL    HW2 4810   4.034   3.233   2.118
 1195SOL    HW3 4811   3.962   3.159   2.007
 1195SOL    MW4 4812   4.026   3.211   2.034
 1196SOL     OW 4813   4.008   3.472   1.887
 1196SOL    HW2 4814   4.087   3.511   1.925
 1196SOL    HW3 4815   4.009   3.381   1.918
 1196SOL    MW4 4816   4.018   3.465   1.896
 1197SOL     OW 4817   4.240   3.575   2.010
 1197SOL    HW2 4818   4.255   3.661   1.970
 1197SOL    HW3 4819   4.305   3.519   1.968
 1197SOL    MW4 4820   4.251   3.579   1.999
 1198SOL     OW 4821   4.253   3.842   1.905
 1198SOL    HW2 4822   4.311   3.901   1.953
 1198SOL    HW3 4823   4.272   3.859   1.813
 1198SOL    MW4 4824   4.263   3.852   1.899
 1199SOL     OW 4825   4.030   3.973   1.989
 1199SOL    HW2 4826   4.102   3.920   1.951
 1199SOL    HW3 4827   3.952   3.943   1.943
 1199SOL    MW4 4828   4.029   3.962   1.978
 1200SOL     OW 4829   4.008   4.242   1.874
 1200SOL    HW2 4830   4.084   4.296   1.897
 1200SOL    HW3 4831   4.024   4.158   1.917
 1200SOL    MW4 4832   4.020   4.238   1.883
 1201SOL     OW 4833   4.210   4.399   1.984
 1201SOL    HW2 4834   4.228   4.414   2.076
 1201SOL    HW3 4835   4.221   4.485   1.943
 1201SOL    MW4 4836   4.214   4.412   1.990
 1202SOL     OW 4837   0.232   0.029   2.351
 1202SOL    HW2 4838   0.228   0.025   2.447
 1202SOL    HW3 4839   0.315   0.073   2.332
 1202SOL    MW4 4840   0.243   0.034   2.361
 1203SOL     OW 4841   4.457   0.109   2.294
 1203SOL    HW2 4842   4.544   0.074   2.313
 1203SOL    HW3 4843   4.450   0.107   2.198
 1203SOL    MW4 4844   4.467   0.104   2.284
 1204SOL     OW 4845   4.461   0.387   2.382
 1204SOL    HW2 4846   4.545   0.426   2.359
 1204SOL    HW3 4847   4.468   0.296   2.354
 1204SOL    MW4 4848   4.473   0.380   2.375
 1205SOL     OW 4849   0.189   0.503   2.285
 1205SOL    HW2 4850   0.276   0.476   2.315
 1205SOL    HW3 4851   0.196   0.506   2.190
 1205SOL    MW4 4852   0.202   0.500   2.277
 1206SOL     OW 4853   0.166   0.770   2.357
 1206SOL    HW2 4854   0.210   0.777   2.442
 1206SOL    HW3 4855   0.177   0.679   2.332
 1206SOL    MW4 4856   0.174   0.759   2.365
 1207SOL     OW 4857   4.429   0.909   2.280
 1207SOL    HW2 4858   4.511   0.862   2.298
 1207SOL    HW3 4859   4.422   0.909   2.184
 1207SOL    MW4 4860   4.439   0.903   2.269
 1208SOL     OW 4861   0.014   1.163   2.345
 1208SOL    HW2 4862   0.009   1.169   2.440
 1208SOL    HW3 4863  -0.017   1.075   2.324
 1208SOL    MW4 4864   0.009   1.152   2.355
 1209SOL     OW 4865   0.265   1.285   2.286
 1209SOL    HW2 4866   0.189   1.233   2.311
 1209SOL    HW3 4867   0.263   1.285   2.190
 1209SOL    MW4 4868   0.255   1.278   2.276
 1210SOL     OW 4869   0.196   1.554   2.340
 1210SOL    HW2 4870   0.209   1.554   2.435
 1210SOL    HW3 4871   0.213   1.463   2.314
 1210SOL    MW4 4872   0.200   1.542   2.349
 1211SOL     OW 4873   4.444   1.659   2.237
 1211SOL    HW2 4874   4.434   1.748   2.271
 1211SOL    HW3 4875   4.529   1.630   2.271
 1211SOL    MW4 4876   4.453   1.667   2.246
 1212SOL     OW 4877   4.474   1.882   2.388
 1212SOL    HW2 4878   4.398   1.928   2.353
 1212SOL    HW3 4879   4.550   1.935   2.362
 1212SOL    MW4 4880   4.474   1.895   2.380
 1213SOL     OW 4881   0.202   2.004   2.260
 1213SOL    HW2 4882   0.292   1.975   2.274
 1213SOL    HW3 4883   0.191   2.005   2.165
 1213SOL    MW4 4884   0.212   2.001   2.249
 1214SOL     OW 4885   0.203   2.274   2.325
 1214SOL    HW2 4886   0.229   2.280   2.416
 1214SOL    HW3 4887   0.215   2.181   2.303
 1214SOL    MW4 4888   0.208   2.262   2.334
 1215SOL     OW 4889   4.470   2.469   2.248
 1215SOL    HW2 4890   4.472   2.552   2.295
 1215SOL    HW3 4891   4.547   2.421   2.280
 1215SOL    MW4 4892   4.480   2.473   2.259
 1216SOL     OW 4893   4.420   2.703   2.387
 1216SOL    HW2 4894   4.433   2.708   2.482
 1216SOL    HW3 4895   4.496   2.748   2.350
 1216SOL    MW4 4896   4.432   2.710   2.395
 1217SOL     OW 4897   0.161   2.823   2.288
 1217SOL    HW2 4898   0.248   2.791   2.311
 1217SOL    HW3 4899   0.165   2.839   2.193
 1217SOL    MW4 4900   0.173   2.821   2.278
 1218SOL     OW 4901   0.215   3.068   2.408
 1218SOL    HW2 4902   0.149   3.123   2.366
 1218SOL    HW3 4903   0.200   2.981   2.372
 1218SOL    MW4 4904   0.204   3.064   2.398
 1219SOL     OW 4905   0.019   3.223   2.294
 1219SOL    HW2 4906  -0.002   3.316   2.307
 1219SOL    HW3 4907   0.025   3.213   2.199
 1219SOL    MW4 4908   0.017   3.234   2.283
 1220SOL     OW 4909   4.476   3.483   2.349
 1220SOL    HW2 4910   4.490   3.488   2.444
 1220SOL    HW3 4911   4.415   3.554   2.330
 1220SOL    MW4 4912   4.470   3.493   2.359
 1221SOL     OW 4913   0.217   3.616   2.263
 1221SOL    HW2 4914   0.288   3.555   2.285
 1221SOL    HW3 4915   0.138   3.573   2.295
 1221SOL    MW4 4916   0.216   3.602   2.270
 1222SOL     OW 4917   0.256   3.875   2.360
 1222SOL    HW2 4918   0.194   3.933   2.316
 1222SOL    HW3 4919   0.236   3.788   2.327
 1222SOL    MW4 4920   0.245   3.871   2.350
 1223SOL     OW 4921   0.050   4.045   2.270
 1223SOL    HW2 4922   0.029   4.131   2.306
 1223SOL    HW3 4923   0.018   4.047   2.180
 1223SOL    MW4 4924   0.043   4.056   2.263
 1224SOL     OW 4925   4.464   4.294   2.370
 1224SOL    HW2 4926   4.484   4.282   2.463
 1224SOL    HW3 4927   4.542   4.338   2.335
 1224SOL    MW4 4928   4.477   4.299   2.378
 1225SOL     OW 4929   0.205   4.412   2.255
 1225SOL    HW2 4930   0.279   4.352   2.268
 1225SOL    HW3 4931   0.233   4.494   2.295
 1225SOL    MW4 4932   0.218   4.415   2.262
 1226SOL     OW 4933   0.623   4.652   2.381
 1226SOL    HW2 4934   0.615   4.670   2.475
 1226SOL    HW3 4935   0.711   4.684   2.359
 1226SOL    MW4 4936   0.634   4.659   2.391
 1227SOL     OW 4937   0.461   0.174   2.280
 1227SOL    HW2 4938   0.523   0.106   2.307
 1227SOL    HW3 4939   0.467   0.175   2.185
 1227SOL    MW4 4940   0.470   0.165   2.271
 1228SOL     OW 4941   0.462   0.424   2.376
 1228SOL    HW2 4942   0.458   0.432   2.471
 1228SOL    HW3 4943   0.470   0.330   2.359
 1228SOL    MW4 4944   0.462   0.413   2.386
 1229SOL     OW 4945   0.689   0.522   2.246
 1229SOL    HW2 4946   0.687   0.604   2.295
 1229SOL    HW3 4947   0.614   0.473   2.278
 1229SOL    MW4 4948   0.679   0.526   2.256
 1230SOL     OW 4949   0.684   0.776   2.363
 1230SOL    HW2 4950   0.679   0.781   2.459
 1230SOL    HW3 4951   0.596   0.798   2.334
 1230SOL    MW4 4952   0.672   0.780   2.372
 1231SOL     OW 4953   0.438   0.859   2.263
 1231SOL    HW2 4954   0.351   0.823   2.281
 1231SOL    HW3 4955   0.440   0.870   2.168
 1231SOL    MW4 4956   0.427   0.855   2.253
 1232SOL     OW 4957   0.468   1.129   2.355
 1232SOL    HW2 4958   0.448   1.042   2.321
 1232SOL    HW3 4959   0.398   1.185   2.322
 1232SOL    MW4 4960   0.456   1.125   2.346
 1233SOL     OW 4961   0.660   1.280   2.233
 1233SOL    HW2 4962   0.654   1.367   2.272
 1233SOL    HW3 4963   0.599   1.227   2.284
 1233SOL    MW4 4964   0.652   1.285   2.245
 1234SOL     OW 4965   0.632   1.527   2.350
 1234SOL    HW2 4966   0.638   1.539   2.445
 1234SOL    HW3 4967   0.712   1.568   2.316
 1234SOL    MW4 4968   0.644   1.534   2.358
 1235SOL     OW 4969   0.435   1.673   2.249
 1235SOL    HW2 4970   0.508   1.624   2.287
 1235SOL    HW3 4971   0.357   1.634   2.287
 1235SOL    MW4 4972   0.434   1.661   2.259
 1236SOL     OW 4973   0.439   1.917   2.369
 1236SOL    HW2 4974   0.504   1.955   2.309
 1236SOL    HW3 4975   0.427   1.828   2.337
 1236SOL    MW4 4976   0.446   1.910   2.357
 1237SOL     OW 4977   0.628   2.052   2.226
 1237SOL    HW2 4978   0.707   2.019   2.268
 1237SOL    HW3 4979   0.618   2.141   2.259
 1237SOL    MW4 4980   0.637   2.059   2.236
 1238SOL     OW 4981   0.632   2.317   2.344
 1238SOL    HW2 4982   0.662   2.311   2.435
 1238SOL    HW3 4983   0.708   2.351   2.297
 1238SOL    MW4 4984   0.646   2.320   2.350
 1239SOL     OW 4985   0.402   2.458   2.246
 1239SOL    HW2 4986   0.482   2.412   2.274
 1239SOL    HW3 4987   0.333   2.392   2.253
 1239SOL    MW4 4988   0.404   2.443   2.251
 1240SOL     OW 4989   0.396   2.721   2.377
 1240SOL    HW2 4990   0.411   2.719   2.472
 1240SOL    HW3 4991   0.394   2.629   2.351
 1240SOL    MW4 4992   0.398   2.709   2.386
 1241SOL     OW 4993   0.641   2.829   2.255
 1241SOL    HW2 4994   0.723   2.794   2.292
 1241SOL    HW3 4995   0.572   2.776   2.296
 1241SOL    MW4 4996   0.643   2.817   2.266
 1242SOL     OW 4997   0.677   3.064   2.362
 1242SOL    HW2 4998   0.593   3.106   2.345
 1242SOL    HW3 4999   0.669   2.977   2.323
 1242SOL    MW4 5000   0.665   3.058   2.355
 1243SOL     OW 5001   0.436   3.188   2.280
 1243SOL    HW2 5002   0.367   3.133   2.316
 1243SOL    HW3 5003   0.433   3.171   2.185
 1243SOL    MW4 5004   0.427   3.178   2.272
 1244SOL     OW 5005   0.437   3.462   2.363
 1244SOL    HW2 5006   0.511   3.499   2.314
 1244SOL    HW3 5007   0.429   3.373   2.330
 1244SOL    MW4 5008   0.446   3.455   2.352
 1245SOL     OW 5009   0.652   3.609   2.246
 1245SOL    HW2 5010   0.658   3.699   2.279
 1245SOL    HW3 5011   0.648   3.618   2.151
 1245SOL    MW4 5012   0.652   3.622   2.238
 1246SOL     OW 5013   0.670   3.852   2.349
 1246SOL    HW2 5014   0.660   3.865   2.443
 1246SOL    HW3 5015   0.600   3.905   2.310
 1246SOL    MW4 5016   0.659   3.861   2.356
 1247SOL     OW 5017   0.449   4.032   2.241
 1247SOL    HW2 5018   0.394   3.970   2.289
 1247SOL    HW3 5019   0.438   4.007   2.150
 1247SOL    MW4 5020   0.441   4.020   2.236
 1248SOL     OW 5021   0.419   4.278   2.377
 1248SOL    HW2 5022   0.499   4.327   2.358
 1248SOL    HW3 5023   0.432   4.194   2.333
 1248SOL    MW4 5024   0.432   4.273   2.369
 1249SOL     OW 5025   0.655   4.398   2.292
 1249SOL    HW2 5026   0.665   4.484   2.334
 1249SOL    HW3 5027   0.630   4.419   2.202
 1249SOL    MW4 5028   0.653   4.412   2.286
 1250SOL     OW 5029   1.122   0.037   2.362
 1250SOL    HW2 5030   1.115   0.017   2.456
 1250SOL    HW3 5031   1.035   0.068   2.337
 1250SOL    MW4 5032   1.110   0.039   2.371
 1251SOL     OW 5033   0.863   0.122   2.318
 1251SOL    HW2 5034   0.879   0.214   2.335
 1251SOL    HW3 5035   0.854   0.116   2.223
 1251SOL    MW4 5036   0.864   0.133   2.308
 1252SOL     OW 5037   0.909   0.394   2.370
 1252SOL    HW2 5038   0.981   0.416   2.311
 1252SOL    HW3 5039   0.833   0.438   2.332
 1252SOL    MW4 5040   0.908   0.403   2.357
 1253SOL     OW 5041   1.135   0.487   2.261
 1253SOL    HW2 5042   1.218   0.458   2.298
 1253SOL    HW3 5043   1.154   0.502   2.168
 1253SOL    MW4 5044   1.148   0.485   2.254
 1254SOL     OW 5045   1.125   0.747   2.363
 1254SOL    HW2 5046   1.048   0.799   2.340
 1254SOL    HW3 5047   1.107   0.660   2.327
 1254SOL    MW4 5048   1.113   0.742   2.355
 1255SOL     OW 5049   0.908   0.908   2.258
 1255SOL    HW2 5050   0.901   0.990   2.306
 1255SOL    HW3 5051   0.825   0.863   2.274
 1255SOL    MW4 5052   0.896   0.913   2.267
 1256SOL     OW 5053   0.896   1.177   2.346
 1256SOL    HW2 5054   0.964   1.232   2.308
 1256SOL    HW3 5055   0.814   1.215   2.313
 1256SOL    MW4 5056   0.894   1.190   2.337
 1257SOL     OW 5057   1.143   1.291   2.218
 1257SOL    HW2 5058   1.221   1.243   2.246
 1257SOL    HW3 5059   1.143   1.281   2.123
 1257SOL    MW4 5060   1.154   1.283   2.209
 1258SOL     OW 5061   1.118   1.539   2.346
 1258SOL    HW2 5062   1.028   1.563   2.323
 1258SOL    HW3 5063   1.129   1.452   2.309
 1258SOL    MW4 5064   1.107   1.531   2.338
 1259SOL     OW 5065   0.867   1.642   2.253
 1259SOL    HW2 5066   0.881   1.734   2.278
 1259SOL    HW3 5067   0.870   1.643   2.157
 1259SOL    MW4 5068   0.869   1.654   2.243
 1260SOL     OW 5069   0.861   1.938   2.321
 1260SOL    HW2 5070   0.870   1.941   2.416
 1260SOL    HW3 5071   0.949   1.955   2.288
 1260SOL    MW4 5072   0.874   1.941   2.329
 1261SOL     OW 5073   1.125   2.036   2.249
 1261SOL    HW2 5074   1.201   1.990   2.285
 1261SOL    HW3 5075   1.134   2.027   2.154
 1261SOL    MW4 5076   1.136   2.029   2.241
 1262SOL     OW 5077   1.133   2.297   2.330
 1262SOL    HW2 5078   1.218   2.327   2.298
 1262SOL    HW3 5079   1.125   2.208   2.296
 1262SOL    MW4 5080   1.143   2.289   2.321
 1263SOL     OW 5081   0.866   2.469   2.226
 1263SOL    HW2 5082   0.940   2.410   2.244
 1263SOL    HW3 5083   0.865   2.478   2.131
 1263SOL    MW4 5084   0.876   2.462   2.216
 1264SOL     OW 5085   0.877   2.734   2.329
 1264SOL    HW2 5086   0.878   2.739   2.424
 1264SOL    HW3 5087   0.857   2.642   2.310
 1264SOL    MW4 5088   0.874   2.722   2.339
 1265SOL     OW 5089   1.091   2.867   2.243
 1265SOL    HW2 5090   1.168   2.828   2.286
 1265SOL    HW3 5091   1.018   2.816   2.277
 1265SOL    MW4 5092   1.092   2.855   2.253
 1266SOL     OW 5093   1.121   3.102   2.405
 1266SOL    HW2 5094   1.053   3.142   2.351
 1266SOL    HW3 5095   1.124   3.011   2.375
 1266SOL    MW4 5096   1.112   3.095   2.394
 1267SOL     OW 5097   0.862   3.236   2.222
 1267SOL    HW2 5098   0.860   3.311   2.282
 1267SOL    HW3 5099   0.817   3.167   2.270
 1267SOL    MW4 5100   0.856   3.237   2.236
 1268SOL     OW 5101   0.880   3.483   2.358
 1268SOL    HW2 5102   0.861   3.471   2.451
 1268SOL    HW3 5103   0.803   3.528   2.323
 1268SOL    MW4 5104   0.867   3.487   2.366
 1269SOL     OW 5105   1.110   3.583   2.250
 1269SOL    HW2 5106   1.192   3.551   2.286
 1269SOL    HW3 5107   1.042   3.534   2.296
 1269SOL    MW4 5108   1.112   3.573   2.261
 1270SOL     OW 5109   1.100   3.870   2.338
 1270SOL    HW2 5110   1.171   3.907   2.286
 1270SOL    HW3 5111   1.109   3.776   2.327
 1270SOL    MW4 5112   1.110   3.863   2.330
 1271SOL     OW 5113   0.871   4.010   2.278
 1271SOL    HW2 5114   0.958   3.974   2.296
 1271SOL    HW3 5115   0.810   3.942   2.306
 1271SOL    MW4 5116   0.875   3.996   2.284
 1272SOL     OW 5117   0.904   4.288   2.351
 1272SOL    HW2 5118   0.900   4.202   2.309
 1272SOL    HW3 5119   0.829   4.335   2.315
 1272SOL    MW4 5120   0.894   4.282   2.341
 1273SOL     OW 5121   1.134   4.413   2.272
 1273SOL    HW2 5122   1.051   4.375   2.302
 1273SOL    HW3 5123   1.137   4.499   2.314
 1273SOL    MW4 5124   1.123   4.419   2.282
 1274SOL     OW 5125   1.585   4.612   2.348
 1274SOL    HW2 5126   1.668   4.657   2.332
 1274SOL    HW3 5127   1.518   4.669   2.311
 1274SOL    MW4 5128   1.587   4.625   2.341
 1275SOL     OW 5129   1.384   0.137   2.268
 1275SOL    HW2 5130   1.401   0.217   2.316
 1275SOL    HW3 5131   1.301   0.105   2.302
 1275SOL    MW4 5132   1.375   0.143   2.279
 1276SOL     OW 5133   1.378   0.383   2.384
 1276SOL    HW2 5134   1.385   0.387   2.480
 1276SOL    HW3 5135   1.453   0.434   2.353
 1276SOL    MW4 5136   1.389   0.391   2.393
 1277SOL     OW 5137   1.615   0.504   2.281
 1277SOL    HW2 5138   1.693   0.452   2.301
 1277SOL    HW3 5139   1.612   0.506   2.185
 1277SOL    MW4 5140   1.625   0.498   2.271
 1278SOL     OW 5141   1.547   0.765   2.395
 1278SOL    HW2 5142   1.626   0.798   2.352
 1278SOL    HW3 5143   1.552   0.670   2.384
 1278SOL    MW4 5144   1.558   0.757   2.387
 1279SOL     OW 5145   1.339   0.900   2.266
 1279SOL    HW2 5146   1.413   0.869   2.319
 1279SOL    HW3 5147   1.263   0.854   2.303
 1279SOL    MW4 5148   1.339   0.890   2.278
 1280SOL     OW 5149   1.364   1.161   2.324
 1280SOL    HW2 5150   1.365   1.161   2.420
 1280SOL    HW3 5151   1.349   1.069   2.301
 1280SOL    MW4 5152   1.362   1.149   2.334
 1281SOL     OW 5153   1.581   1.302   2.209
 1281SOL    HW2 5154   1.505   1.249   2.233
 1281SOL    HW3 5155   1.590   1.290   2.115
 1281SOL    MW4 5156   1.572   1.293   2.200
 1282SOL     OW 5157   1.587   1.554   2.327
 1282SOL    HW2 5158   1.665   1.599   2.292
 1282SOL    HW3 5159   1.594   1.465   2.292
 1282SOL    MW4 5160   1.598   1.548   2.317
 1283SOL     OW 5161   1.338   1.648   2.227
 1283SOL    HW2 5162   1.410   1.609   2.276
 1283SOL    HW3 5163   1.259   1.614   2.269
 1283SOL    MW4 5164   1.337   1.639   2.239
 1284SOL     OW 5165   1.344   1.916   2.341
 1284SOL    HW2 5166   1.415   1.959   2.291
 1284SOL    HW3 5167   1.347   1.825   2.312
 1284SOL    MW4 5168   1.354   1.910   2.330
 1285SOL     OW 5169   1.580   2.023   2.231
 1285SOL    HW2 5170   1.649   1.989   2.288
 1285SOL    HW3 5171   1.602   1.991   2.144
 1285SOL    MW4 5172   1.592   2.014   2.227
 1286SOL     OW 5173   1.546   2.293   2.331
 1286SOL    HW2 5174   1.567   2.283   2.424
 1286SOL    HW3 5175   1.564   2.208   2.292
 1286SOL    MW4 5176   1.551   2.281   2.338
 1287SOL     OW 5177   1.348   2.469   2.248
 1287SOL    HW2 5178   1.428   2.416   2.260
 1287SOL    HW3 5179   1.327   2.459   2.156
 1287SOL    MW4 5180   1.356   2.461   2.238
 1288SOL     OW 5181   1.298   2.722   2.351
 1288SOL    HW2 5182   1.370   2.781   2.329
 1288SOL    HW3 5183   1.323   2.638   2.313
 1288SOL    MW4 5184   1.311   2.719   2.343
 1289SOL     OW 5185   1.531   2.862   2.292
 1289SOL    HW2 5186   1.546   2.957   2.294
 1289SOL    HW3 5187   1.539   2.839   2.200
 1289SOL    MW4 5188   1.534   2.872   2.280
 1290SOL     OW 5189   1.590   3.135   2.319
 1290SOL    HW2 5190   1.597   3.117   2.413
 1290SOL    HW3 5191   1.502   3.171   2.308
 1290SOL    MW4 5192   1.579   3.138   2.330
 1291SOL     OW 5193   1.338   3.253   2.251
 1291SOL    HW2 5194   1.262   3.215   2.295
 1291SOL    HW3 5195   1.321   3.239   2.158
 1291SOL    MW4 5196   1.325   3.246   2.244
 1292SOL     OW 5197   1.340   3.494   2.367
 1292SOL    HW2 5198   1.367   3.485   2.459
 1292SOL    HW3 5199   1.352   3.406   2.331
 1292SOL    MW4 5200   1.345   3.481   2.375
 1293SOL     OW 5201   1.558   3.597   2.231
 1293SOL    HW2 5202   1.545   3.690   2.249
 1293SOL    HW3 5203   1.482   3.554   2.271
 1293SOL    MW4 5204   1.546   3.604   2.239
 1294SOL     OW 5205   1.582   3.863   2.349
 1294SOL    HW2 5206   1.558   3.844   2.440
 1294SOL    HW3 5207   1.660   3.919   2.356
 1294SOL    MW4 5208   1.589   3.868   2.362
 1295SOL     OW 5209   1.329   4.001   2.243
 1295SOL    HW2 5210   1.414   3.975   2.277
 1295SOL    HW3 5211   1.343   4.011   2.148
 1295SOL    MW4 5212   1.342   3.999   2.235
 1296SOL     OW 5213   1.348   4.260   2.340
 1296SOL    HW2 5214   1.340   4.170   2.306
 1296SOL    HW3 5215   1.266   4.302   2.314
 1296SOL    MW4 5216   1.336   4.254   2.332
 1297SOL     OW 5217   1.562   4.368   2.218
 1297SOL    HW2 5218   1.507   4.308   2.268
 1297SOL    HW3 5219   1.556   4.451   2.265
 1297SOL    MW4 5220   1.554   4.371   2.231
 1298SOL     OW 5221   2.038   0.004   2.373
 1298SOL    HW2 5222   2.117   0.036   2.330
 1298SOL    HW3 5223   2.026  -0.085   2.338
 1298SOL    MW4 5224   2.047  -0.004   2.363
 1299SOL     OW 5225   1.796   0.108   2.278
 1299SOL    HW2 5226   1.802   0.188   2.329
 1299SOL    HW3 5227   1.874   0.058   2.302
 1299SOL    MW4 5228   1.807   0.112   2.288
 1300SOL     OW 5229   1.832   0.354   2.407
 1300SOL    HW2 5230   1.825   0.378   2.499
 1300SOL    HW3 5231   1.910   0.399   2.375
 1300SOL    MW4 5232   1.841   0.363   2.415
 1301SOL     OW 5233   2.022   0.481   2.248
 1301SOL    HW2 5234   2.024   0.568   2.288
 1301SOL    HW3 5235   2.018   0.497   2.154
 1301SOL    MW4 5236   2.021   0.494   2.241
 1302SOL     OW 5237   1.999   0.724   2.370
 1302SOL    HW2 5238   2.083   0.771   2.363
 1302SOL    HW3 5239   1.935   0.786   2.335
 1302SOL    MW4 5240   2.002   0.739   2.364
 1303SOL     OW 5241   1.802   0.899   2.278
 1303SOL    HW2 5242   1.791   0.991   2.303
 1303SOL    HW3 5243   1.809   0.900   2.183
 1303SOL    MW4 5244   1.802   0.911   2.269
 1304SOL     OW 5245   1.779   1.159   2.373
 1304SOL    HW2 5246   1.865   1.188   2.342
 1304SOL    HW3 5247   1.717   1.216   2.328
 1304SOL    MW4 5248   1.783   1.170   2.363
 1305SOL     OW 5249   2.042   1.264   2.307
 1305SOL    HW2 5250   2.055   1.358   2.317
 1305SOL    HW3 5251   2.042   1.249   2.213
 1305SOL    MW4 5252   2.044   1.275   2.296
 1306SOL     OW 5253   2.087   1.539   2.381
 1306SOL    HW2 5254   2.081   1.552   2.476
 1306SOL    HW3 5255   2.003   1.573   2.348
 1306SOL    MW4 5256   2.075   1.545   2.390
 1307SOL     OW 5257   1.839   1.635   2.273
 1307SOL    HW2 5258   1.836   1.725   2.305
 1307SOL    HW3 5259   1.832   1.644   2.178
 1307SOL    MW4 5260   1.838   1.648   2.265
 1308SOL     OW 5261   1.785   1.893   2.357
 1308SOL    HW2 5262   1.767   1.889   2.451
 1308SOL    HW3 5263   1.857   1.956   2.349
 1308SOL    MW4 5264   1.792   1.901   2.368
 1309SOL     OW 5265   1.996   2.053   2.273
 1309SOL    HW2 5266   2.080   2.025   2.309
 1309SOL    HW3 5267   2.007   2.046   2.178
 1309SOL    MW4 5268   2.008   2.048   2.265
 1310SOL     OW 5269   1.994   2.343   2.321
 1310SOL    HW2 5270   2.071   2.380   2.278
 1310SOL    HW3 5271   2.009   2.249   2.321
 1310SOL    MW4 5272   2.006   2.336   2.315
 1311SOL     OW 5273   1.756   2.425   2.202
 1311SOL    HW2 5274   1.834   2.400   2.251
 1311SOL    HW3 5275   1.685   2.374   2.241
 1311SOL    MW4 5276   1.757   2.415   2.214
 1312SOL     OW 5277   1.758   2.685   2.331
 1312SOL    HW2 5278   1.747   2.608   2.275
 1312SOL    HW3 5279   1.688   2.745   2.303
 1312SOL    MW4 5280   1.747   2.683   2.320
 1313SOL     OW 5281   1.997   2.841   2.243
 1313SOL    HW2 5282   2.065   2.793   2.290
 1313SOL    HW3 5283   1.914   2.806   2.275
 1313SOL    MW4 5284   1.995   2.830   2.253
 1314SOL     OW 5285   2.050   3.093   2.352
 1314SOL    HW2 5286   2.136   3.123   2.325
 1314SOL    HW3 5287   2.043   3.004   2.316
 1314SOL    MW4 5288   2.060   3.085   2.344
 1315SOL     OW 5289   1.826   3.251   2.256
 1315SOL    HW2 5290   1.892   3.197   2.299
 1315SOL    HW3 5291   1.742   3.213   2.284
 1315SOL    MW4 5292   1.824   3.239   2.265
 1316SOL     OW 5293   1.789   3.510   2.380
 1316SOL    HW2 5294   1.792   3.426   2.334
 1316SOL    HW3 5295   1.706   3.549   2.353
 1316SOL    MW4 5296   1.778   3.504   2.370
 1317SOL     OW 5297   2.008   3.633   2.286
 1317SOL    HW2 5298   1.930   3.594   2.325
 1317SOL    HW3 5299   2.001   3.614   2.192
 1317SOL    MW4 5300   1.997   3.625   2.279
 1318SOL     OW 5301   2.035   3.897   2.360
 1318SOL    HW2 5302   2.032   3.894   2.455
 1318SOL    HW3 5303   2.022   3.806   2.332
 1318SOL    MW4 5304   2.033   3.885   2.369
 1319SOL     OW 5305   1.805   4.032   2.273
 1319SOL    HW2 5306   1.885   3.986   2.296
 1319SOL    HW3 5307   1.788   4.007   2.182
 1319SOL    MW4 5308   1.813   4.023   2.264
 1320SOL     OW 5309   1.792   4.302   2.353
 1320SOL    HW2 5310   1.804   4.209   2.333
 1320SOL    HW3 5311   1.706   4.323   2.316
 1320SOL    MW4 5312   1.782   4.292   2.346
 1321SOL     OW 5313   2.029   4.427   2.266
 1321SOL    HW2 5314   1.938   4.408   2.285
 1321SOL    HW3 5315   2.035   4.424   2.171
 1321SOL    MW4 5316   2.018   4.424   2.256
 1322SOL     OW 5317   2.494   0.001   2.380
 1322SOL    HW2 5318   2.559   0.051   2.330
 1322SOL    HW3 5319   2.496  -0.087   2.340
 1322SOL    MW4 5320   2.503  -0.004   2.368
 1323SOL     OW 5321   2.273   0.113   2.254
 1323SOL    HW2 5322   2.276   0.200   2.294
 1323SOL    HW3 5323   2.346   0.066   2.293
 1323SOL    MW4 5324   2.283   0.118   2.264
 1324SOL     OW 5325   2.259   0.361   2.354
 1324SOL    HW2 5326   2.324   0.422   2.320
 1324SOL    HW3 5327   2.177   0.386   2.310
 1324SOL    MW4 5328   2.257   0.373   2.344
 1325SOL     OW 5329   2.467   0.515   2.238
 1325SOL    HW2 5330   2.532   0.452   2.270
 1325SOL    HW3 5331   2.463   0.499   2.143
 1325SOL    MW4 5332   2.475   0.504   2.229
 1326SOL     OW 5333   2.465   0.750   2.380
 1326SOL    HW2 5334   2.518   0.818   2.337
 1326SOL    HW3 5335   2.482   0.671   2.329
 1326SOL    MW4 5336   2.474   0.749   2.368
 1327SOL     OW 5337   2.232   0.856   2.297
 1327SOL    HW2 5338   2.239   0.948   2.323
 1327SOL    HW3 5339   2.312   0.816   2.330
 1327SOL    MW4 5340   2.243   0.863   2.305
 1328SOL     OW 5341   2.276   1.133   2.374
 1328SOL    HW2 5342   2.333   1.192   2.325
 1328SOL    HW3 5343   2.189   1.171   2.364
 1328SOL    MW4 5344   2.272   1.146   2.366
 1329SOL     OW 5345   2.477   1.288   2.241
 1329SOL    HW2 5346   2.537   1.237   2.294
 1329SOL    HW3 5347   2.489   1.378   2.271
 1329SOL    MW4 5348   2.486   1.293   2.251
 1330SOL     OW 5349   2.510   1.555   2.348
 1330SOL    HW2 5350   2.501   1.541   2.442
 1330SOL    HW3 5351   2.578   1.622   2.339
 1330SOL    MW4 5352   2.518   1.562   2.359
 1331SOL     OW 5353   2.278   1.702   2.280
 1331SOL    HW2 5354   2.355   1.650   2.300
 1331SOL    HW3 5355   2.208   1.662   2.331
 1331SOL    MW4 5356   2.279   1.690   2.289
 1332SOL     OW 5357   2.238   1.937   2.375
 1332SOL    HW2 5358   2.317   1.986   2.353
 1332SOL    HW3 5359   2.256   1.848   2.342
 1332SOL    MW4 5360   2.251   1.932   2.367
 1333SOL     OW 5361   2.502   2.074   2.302
 1333SOL    HW2 5362   2.589   2.040   2.323
 1333SOL    HW3 5363   2.496   2.070   2.207
 1333SOL    MW4 5364   2.512   2.069   2.292
 1334SOL     OW 5365   2.443   2.321   2.406
 1334SOL    HW2 5366   2.516   2.372   2.369
 1334SOL    HW3 5367   2.463   2.230   2.383
 1334SOL    MW4 5368   2.455   2.316   2.398
 1335SOL     OW 5369   2.250   2.420   2.238
 1335SOL    HW2 5370   2.239   2.505   2.279
 1335SOL    HW3 5371   2.309   2.372   2.295
 1335SOL    MW4 5372   2.256   2.425   2.251
 1336SOL     OW 5373   2.221   2.675   2.356
 1336SOL    HW2 5374   2.219   2.672   2.451
 1336SOL    HW3 5375   2.300   2.726   2.335
 1336SOL    MW4 5376   2.231   2.682   2.366
 1337SOL     OW 5377   2.427   2.862   2.282
 1337SOL    HW2 5378   2.507   2.824   2.319
 1337SOL    HW3 5379   2.433   2.843   2.188
 1337SOL    MW4 5380   2.438   2.854   2.275
 1338SOL     OW 5381   2.497   3.102   2.397
 1338SOL    HW2 5382   2.585   3.114   2.361
 1338SOL    HW3 5383   2.468   3.018   2.361
 1338SOL    MW4 5384   2.505   3.092   2.388
 1339SOL     OW 5385   2.284   3.200   2.262
 1339SOL    HW2 5386   2.254   3.286   2.290
 1339SOL    HW3 5387   2.368   3.188   2.307
 1339SOL    MW4 5388   2.291   3.209   2.271
 1340SOL     OW 5389   2.216   3.458   2.354
 1340SOL    HW2 5390   2.208   3.449   2.449
 1340SOL    HW3 5391   2.143   3.515   2.329
 1340SOL    MW4 5392   2.205   3.464   2.363
 1341SOL     OW 5393   2.450   3.581   2.272
 1341SOL    HW2 5394   2.447   3.669   2.310
 1341SOL    HW3 5395   2.363   3.545   2.290
 1341SOL    MW4 5396   2.438   3.588   2.279
 1342SOL     OW 5397   2.470   3.848   2.348
 1342SOL    HW2 5398   2.458   3.863   2.442
 1342SOL    HW3 5399   2.390   3.883   2.308
 1342SOL    MW4 5400   2.458   3.854   2.356
 1343SOL     OW 5401   2.248   4.026   2.248
 1343SOL    HW2 5402   2.254   4.105   2.302
 1343SOL    HW3 5403   2.181   3.973   2.290
 1343SOL    MW4 5404   2.240   4.030   2.260
 1344SOL     OW 5405   2.260   4.289   2.367
 1344SOL    HW2 5406   2.267   4.300   2.462
 1344SOL    HW3 5407   2.188   4.346   2.341
 1344SOL    MW4 5408   2.251   4.298   2.376
 1345SOL     OW 5409   2.473   4.428   2.257
 1345SOL    HW2 5410   2.548   4.383   2.296
 1345SOL    HW3 5411   2.396   4.385   2.293
 1345SOL    MW4 5412   2.473   4.416   2.267
 1346SOL     OW 5413   2.927   0.002   2.350
 1346SOL    HW2 5414   3.003   0.046   2.310
 1346SOL    HW3 5415   2.922  -0.082   2.305
 1346SOL    MW4 5416   2.937  -0.003   2.339
 1347SOL     OW 5417   2.694   0.120   2.241
 1347SOL    HW2 5418   2.681   0.204   2.284
 1347SOL    HW3 5419   2.761   0.076   2.293
 1347SOL    MW4 5420   2.701   0.125   2.253
 1348SOL     OW 5421   2.646   0.357   2.359
 1348SOL    HW2 5422   2.647   0.379   2.452
 1348SOL    HW3 5423   2.730   0.390   2.326
 1348SOL    MW4 5424   2.658   0.365   2.367
 1349SOL     OW 5425   2.881   0.442   2.270
 1349SOL    HW2 5426   2.891   0.536   2.282
 1349SOL    HW3 5427   2.889   0.429   2.175
 1349SOL    MW4 5428   2.883   0.452   2.259
 1350SOL     OW 5429   2.908   0.745   2.344
 1350SOL    HW2 5430   2.908   0.741   2.440
 1350SOL    HW3 5431   2.827   0.793   2.323
 1350SOL    MW4 5432   2.897   0.751   2.354
 1351SOL     OW 5433   2.688   0.901   2.264
 1351SOL    HW2 5434   2.690   0.994   2.287
 1351SOL    HW3 5435   2.717   0.898   2.173
 1351SOL    MW4 5436   2.692   0.913   2.255
 1352SOL     OW 5437   2.687   1.166   2.375
 1352SOL    HW2 5438   2.710   1.164   2.468
 1352SOL    HW3 5439   2.756   1.217   2.334
 1352SOL    MW4 5440   2.699   1.173   2.382
 1353SOL     OW 5441   2.906   1.297   2.234
 1353SOL    HW2 5442   2.993   1.270   2.262
 1353SOL    HW3 5443   2.909   1.292   2.138
 1353SOL    MW4 5444   2.918   1.293   2.225
 1354SOL     OW 5445   2.930   1.539   2.352
 1354SOL    HW2 5446   2.971   1.519   2.437
 1354SOL    HW3 5447   2.922   1.454   2.309
 1354SOL    MW4 5448   2.935   1.525   2.358
 1355SOL     OW 5449   2.722   1.713   2.256
 1355SOL    HW2 5450   2.786   1.647   2.286
 1355SOL    HW3 5451   2.717   1.700   2.161
 1355SOL    MW4 5452   2.730   1.702   2.248
 1356SOL     OW 5453   2.732   1.965   2.381
 1356SOL    HW2 5454   2.724   1.948   2.474
 1356SOL    HW3 5455   2.738   1.878   2.341
 1356SOL    MW4 5456   2.732   1.952   2.388
 1357SOL     OW 5457   2.946   2.060   2.260
 1357SOL    HW2 5458   3.015   2.072   2.326
 1357SOL    HW3 5459   2.874   2.019   2.309
 1357SOL    MW4 5460   2.946   2.056   2.275
 1358SOL     OW 5461   2.900   2.309   2.351
 1358SOL    HW2 5462   2.890   2.294   2.445
 1358SOL    HW3 5463   2.923   2.224   2.315
 1358SOL    MW4 5464   2.902   2.296   2.359
 1359SOL     OW 5465   2.674   2.447   2.270
 1359SOL    HW2 5466   2.756   2.408   2.302
 1359SOL    HW3 5467   2.683   2.443   2.174
 1359SOL    MW4 5468   2.686   2.441   2.262
 1360SOL     OW 5469   2.631   2.696   2.397
 1360SOL    HW2 5470   2.703   2.753   2.369
 1360SOL    HW3 5471   2.642   2.616   2.346
 1360SOL    MW4 5472   2.642   2.693   2.387
 1361SOL     OW 5473   2.831   2.822   2.279
 1361SOL    HW2 5474   2.863   2.904   2.318
 1361SOL    HW3 5475   2.836   2.837   2.185
 1361SOL    MW4 5476   2.836   2.835   2.272
 1362SOL     OW 5477   2.930   3.076   2.370
 1362SOL    HW2 5478   3.007   3.113   2.328
 1362SOL    HW3 5479   2.856   3.107   2.317
 1362SOL    MW4 5480   2.930   3.085   2.358
 1363SOL     OW 5481   2.725   3.176   2.228
 1363SOL    HW2 5482   2.715   3.270   2.247
 1363SOL    HW3 5483   2.711   3.170   2.133
 1363SOL    MW4 5484   2.722   3.188   2.218
 1364SOL     OW 5485   2.690   3.431   2.331
 1364SOL    HW2 5486   2.761   3.492   2.314
 1364SOL    HW3 5487   2.611   3.481   2.312
 1364SOL    MW4 5488   2.689   3.445   2.327
 1365SOL     OW 5489   2.903   3.599   2.262
 1365SOL    HW2 5490   2.986   3.576   2.305
 1365SOL    HW3 5491   2.895   3.693   2.275
 1365SOL    MW4 5492   2.913   3.608   2.269
 1366SOL     OW 5493   2.902   3.870   2.328
 1366SOL    HW2 5494   2.903   3.888   2.422
 1366SOL    HW3 5495   2.825   3.918   2.295
 1366SOL    MW4 5496   2.892   3.879   2.336
 1367SOL     OW 5497   2.672   4.025   2.273
 1367SOL    HW2 5498   2.602   3.974   2.313
 1367SOL    HW3 5499   2.653   4.022   2.179
 1367SOL    MW4 5500   2.660   4.018   2.266
 1368SOL     OW 5501   2.682   4.291   2.380
 1368SOL    HW2 5502   2.684   4.272   2.474
 1368SOL    HW3 5503   2.677   4.205   2.338
 1368SOL    MW4 5504   2.682   4.277   2.387
 1369SOL     OW 5505   2.901   4.412   2.234
 1369SOL    HW2 5506   2.980   4.362   2.255
 1369SOL    HW3 5507   2.832   4.370   2.285
 1369SOL    MW4 5508   2.902   4.400   2.244
 1370SOL     OW 5509   3.344   4.628   2.340
 1370SOL    HW2 5510   3.354   4.634   2.435
 1370SOL    HW3 5511   3.412   4.685   2.305
 1370SOL    MW4 5512   3.354   4.636   2.348
 1371SOL     OW 5513   3.149   0.143   2.240
 1371SOL    HW2 5514   3.139   0.207   2.310
 1371SOL    HW3 5515   3.225   0.091   2.266
 1371SOL    MW4 5516   3.158   0.145   2.252
 1372SOL     OW 5517   3.125   0.382   2.390
 1372SOL    HW2 5518   3.192   0.431   2.343
 1372SOL    HW3 5519   3.043   0.405   2.346
 1372SOL    MW4 5520   3.123   0.391   2.378
 1373SOL     OW 5521   3.328   0.517   2.255
 1373SOL    HW2 5522   3.405   0.470   2.287
 1373SOL    HW3 5523   3.344   0.530   2.162
 1373SOL    MW4 5524   3.340   0.513   2.247
 1374SOL     OW 5525   3.333   0.753   2.387
 1374SOL    HW2 5526   3.403   0.804   2.347
 1374SOL    HW3 5527   3.323   0.676   2.330
 1374SOL    MW4 5528   3.341   0.749   2.374
 1375SOL     OW 5529   3.128   0.897   2.269
 1375SOL    HW2 5530   3.190   0.832   2.301
 1375SOL    HW3 5531   3.042   0.861   2.292
 1375SOL    MW4 5532   3.125   0.884   2.276
 1376SOL     OW 5533   3.153   1.172   2.341
 1376SOL    HW2 5534   3.239   1.203   2.312
 1376SOL    HW3 5535   3.152   1.080   2.315
 1376SOL    MW4 5536   3.164   1.164   2.333
 1377SOL     OW 5537   3.382   1.271   2.238
 1377SOL    HW2 5538   3.464   1.227   2.264
 1377SOL    HW3 5539   3.391   1.360   2.271
 1377SOL    MW4 5540   3.394   1.277   2.246
 1378SOL     OW 5541   3.370   1.516   2.352
 1378SOL    HW2 5542   3.348   1.515   2.445
 1378SOL    HW3 5543   3.302   1.569   2.311
 1378SOL    MW4 5544   3.358   1.523   2.359
 1379SOL     OW 5545   3.155   1.663   2.240
 1379SOL    HW2 5546   3.151   1.757   2.257
 1379SOL    HW3 5547   3.075   1.627   2.277
 1379SOL    MW4 5548   3.144   1.670   2.247
 1380SOL     OW 5549   3.165   2.101   2.444
 1380SOL    HW2 5550   3.131   2.038   2.508
 1380SOL    HW3 5551   3.209   2.048   2.378
 1380SOL    MW4 5552   3.166   2.086   2.444
 1381SOL     OW 5553   3.262   1.917   2.252
 1381SOL    HW2 5554   3.344   1.909   2.301
 1381SOL    HW3 5555   3.290   1.930   2.162
 1381SOL    MW4 5556   3.277   1.917   2.247
 1382SOL     OW 5557   3.328   2.346   2.433
 1382SOL    HW2 5558   3.273   2.407   2.384
 1382SOL    HW3 5559   3.280   2.263   2.430
 1382SOL    MW4 5560   3.314   2.343   2.426
 1383SOL     OW 5561   3.130   2.462   2.262
 1383SOL    HW2 5562   3.118   2.550   2.298
 1383SOL    HW3 5563   3.057   2.412   2.299
 1383SOL    MW4 5564   3.119   2.467   2.272
 1384SOL     OW 5565   3.085   2.707   2.347
 1384SOL    HW2 5566   3.079   2.699   2.442
 1384SOL    HW3 5567   2.998   2.737   2.320
 1384SOL    MW4 5568   3.073   2.710   2.356
 1385SOL     OW 5569   3.339   2.768   2.246
 1385SOL    HW2 5570   3.351   2.859   2.274
 1385SOL    HW3 5571   3.255   2.743   2.286
 1385SOL    MW4 5572   3.329   2.777   2.255
 1386SOL     OW 5573   3.371   3.030   2.339
 1386SOL    HW2 5574   3.436   3.098   2.329
 1386SOL    HW3 5575   3.288   3.071   2.316
 1386SOL    MW4 5576   3.369   3.044   2.335
 1387SOL     OW 5577   3.160   3.196   2.242
 1387SOL    HW2 5578   3.150   3.291   2.256
 1387SOL    HW3 5579   3.159   3.186   2.147
 1387SOL    MW4 5580   3.159   3.207   2.231
 1388SOL     OW 5581   3.149   3.472   2.342
 1388SOL    HW2 5582   3.155   3.457   2.437
 1388SOL    HW3 5583   3.222   3.530   2.322
 1388SOL    MW4 5584   3.159   3.478   2.352
 1389SOL     OW 5585   3.373   3.628   2.300
 1389SOL    HW2 5586   3.444   3.573   2.332
 1389SOL    HW3 5587   3.374   3.615   2.205
 1389SOL    MW4 5588   3.383   3.619   2.291
 1390SOL     OW 5589   3.347   3.904   2.380
 1390SOL    HW2 5590   3.430   3.943   2.354
 1390SOL    HW3 5591   3.354   3.812   2.356
 1390SOL    MW4 5592   3.359   3.897   2.374
 1391SOL     OW 5593   3.126   3.992   2.213
 1391SOL    HW2 5594   3.188   3.943   2.267
 1391SOL    HW3 5595   3.040   3.971   2.250
 1391SOL    MW4 5596   3.123   3.982   2.225
 1392SOL     OW 5597   3.118   4.263   2.313
 1392SOL    HW2 5598   3.203   4.295   2.283
 1392SOL    HW3 5599   3.121   4.169   2.298
 1392SOL    MW4 5600   3.129   4.255   2.307
 1393SOL     OW 5601   3.358   4.370   2.235
 1393SOL    HW2 5602   3.357   4.460   2.268
 1393SOL    HW3 5603   3.358   4.380   2.140
 1393SOL    MW4 5604   3.358   4.383   2.227
 1394SOL     OW 5605   3.810   4.637   2.340
 1394SOL    HW2 5606   3.794   4.638   2.434
 1394SOL    HW3 5607   3.900   4.668   2.331
 1394SOL    MW4 5608   3.820   4.641   2.351
 1395SOL     OW 5609   3.583   0.109   2.267
 1395SOL    HW2 5610   3.591   0.196   2.306
 1395SOL    HW3 5611   3.661   0.062   2.299
 1395SOL    MW4 5612   3.595   0.114   2.277
 1396SOL     OW 5613   3.555   0.382   2.338
 1396SOL    HW2 5614   3.549   0.377   2.434
 1396SOL    HW3 5615   3.631   0.439   2.323
 1396SOL    MW4 5616   3.564   0.389   2.349
 1397SOL     OW 5617   3.798   0.485   2.283
 1397SOL    HW2 5618   3.788   0.573   2.320
 1397SOL    HW3 5619   3.813   0.500   2.189
 1397SOL    MW4 5620   3.799   0.499   2.275
 1398SOL     OW 5621   3.764   0.757   2.360
 1398SOL    HW2 5622   3.758   0.746   2.455
 1398SOL    HW3 5623   3.854   0.787   2.345
 1398SOL    MW4 5624   3.775   0.760   2.370
 1399SOL     OW 5625   3.534   0.881   2.258
 1399SOL    HW2 5626   3.613   0.836   2.289
 1399SOL    HW3 5627   3.542   0.879   2.162
 1399SOL    MW4 5628   3.546   0.875   2.249
 1400SOL     OW 5629   3.611   1.152   2.343
 1400SOL    HW2 5630   3.601   1.143   2.438
 1400SOL    HW3 5631   3.583   1.068   2.308
 1400SOL    MW4 5632   3.606   1.140   2.351
 1401SOL     OW 5633   3.857   1.272   2.250
 1401SOL    HW2 5634   3.860   1.356   2.296
 1401SOL    HW3 5635   3.775   1.232   2.279
 1401SOL    MW4 5636   3.847   1.278   2.260
 1402SOL     OW 5637   3.837   1.526   2.368
 1402SOL    HW2 5638   3.834   1.525   2.464
 1402SOL    HW3 5639   3.767   1.586   2.343
 1402SOL    MW4 5640   3.827   1.534   2.377
 1403SOL     OW 5641   3.597   1.666   2.283
 1403SOL    HW2 5642   3.521   1.611   2.301
 1403SOL    HW3 5643   3.606   1.663   2.188
 1403SOL    MW4 5644   3.588   1.658   2.273
 1404SOL     OW 5645   3.528   1.928   2.344
 1404SOL    HW2 5646   3.596   1.993   2.327
 1404SOL    HW3 5647   3.569   1.845   2.320
 1404SOL    MW4 5648   3.542   1.925   2.339
 1405SOL     OW 5649   3.760   2.064   2.231
 1405SOL    HW2 5650   3.842   2.029   2.263
 1405SOL    HW3 5651   3.766   2.056   2.135
 1405SOL    MW4 5652   3.772   2.058   2.222
 1406SOL     OW 5653   3.820   2.322   2.333
 1406SOL    HW2 5654   3.736   2.363   2.312
 1406SOL    HW3 5655   3.814   2.235   2.293
 1406SOL    MW4 5656   3.808   2.316   2.325
 1407SOL     OW 5657   3.575   2.433   2.278
 1407SOL    HW2 5658   3.498   2.391   2.317
 1407SOL    HW3 5659   3.553   2.443   2.186
 1407SOL    MW4 5660   3.562   2.428   2.271
 1408SOL     OW 5661   3.563   2.691   2.392
 1408SOL    HW2 5662   3.590   2.603   2.365
 1408SOL    HW3 5663   3.473   2.700   2.360
 1408SOL    MW4 5664   3.554   2.681   2.384
 1409SOL     OW 5665   3.779   2.838   2.256
 1409SOL    HW2 5666   3.790   2.922   2.300
 1409SOL    HW3 5667   3.709   2.794   2.305
 1409SOL    MW4 5668   3.771   2.843   2.268
 1410SOL     OW 5669   3.793   3.102   2.385
 1410SOL    HW2 5670   3.796   3.086   2.479
 1410SOL    HW3 5671   3.874   3.149   2.366
 1410SOL    MW4 5672   3.804   3.106   2.395
 1411SOL     OW 5673   3.566   3.212   2.280
 1411SOL    HW2 5674   3.556   3.302   2.310
 1411SOL    HW3 5675   3.653   3.186   2.310
 1411SOL    MW4 5676   3.576   3.220   2.288
 1412SOL     OW 5677   3.615   3.476   2.343
 1412SOL    HW2 5678   3.621   3.496   2.437
 1412SOL    HW3 5679   3.694   3.514   2.306
 1412SOL    MW4 5680   3.626   3.483   2.351
 1413SOL     OW 5681   3.839   3.620   2.291
 1413SOL    HW2 5682   3.817   3.709   2.319
 1413SOL    HW3 5683   3.836   3.624   2.196
 1413SOL    MW4 5684   3.836   3.632   2.282
 1414SOL     OW 5685   3.821   3.884   2.371
 1414SOL    HW2 5686   3.811   3.877   2.466
 1414SOL    HW3 5687   3.900   3.936   2.359
 1414SOL    MW4 5688   3.830   3.890   2.382
 1415SOL     OW 5689   3.597   3.992   2.264
 1415SOL    HW2 5690   3.596   4.082   2.295
 1415SOL    HW3 5691   3.676   3.954   2.304
 1415SOL    MW4 5692   3.608   3.999   2.274
 1416SOL     OW 5693   3.590   4.270   2.348
 1416SOL    HW2 5694   3.664   4.291   2.291
 1416SOL    HW3 5695   3.515   4.313   2.307
 1416SOL    MW4 5696   3.590   4.278   2.335
 1417SOL     OW 5697   3.819   4.375   2.233
 1417SOL    HW2 5698   3.880   4.333   2.294
 1417SOL    HW3 5699   3.808   4.464   2.268
 1417SOL    MW4 5700   3.826   4.382   2.246
 1418SOL     OW 5701   4.252   4.629   2.413
 1418SOL    HW2 5702   4.232   4.641   2.506
 1418SOL    HW3 5703   4.308   4.704   2.391
 1418SOL    MW4 5704   4.257   4.640   2.422
 1419SOL     OW 5705   4.043   0.109   2.293
 1419SOL    HW2 5706   4.039   0.194   2.337
 1419SOL    HW3 5707   4.115   0.063   2.335
 1419SOL    MW4 5708   4.052   0.114   2.304
 1420SOL     OW 5709   4.017   0.352   2.393
 1420SOL    HW2 5710   4.095   0.383   2.346
 1420SOL    HW3 5711   3.945   0.401   2.355
 1420SOL    MW4 5712   4.018   0.362   2.382
 1421SOL     OW 5713   4.225   0.479   2.281
 1421SOL    HW2 5714   4.211   0.567   2.317
 1421SOL    HW3 5715   4.310   0.453   2.316
 1421SOL    MW4 5716   4.234   0.487   2.290
 1422SOL     OW 5717   4.223   0.769   2.387
 1422SOL    HW2 5718   4.148   0.804   2.340
 1422SOL    HW3 5719   4.298   0.817   2.351
 1422SOL    MW4 5720   4.223   0.780   2.376
 1423SOL     OW 5721   3.997   0.874   2.278
 1423SOL    HW2 5722   4.013   0.962   2.312
 1423SOL    HW3 5723   4.006   0.883   2.183
 1423SOL    MW4 5724   4.001   0.887   2.270
 1424SOL     OW 5725   4.072   1.133   2.359
 1424SOL    HW2 5726   4.041   1.135   2.449
 1424SOL    HW3 5727   4.001   1.173   2.308
 1424SOL    MW4 5728   4.058   1.138   2.364
 1425SOL     OW 5729   4.259   1.319   2.268
 1425SOL    HW2 5730   4.203   1.250   2.304
 1425SOL    HW3 5731   4.348   1.291   2.288
 1425SOL    MW4 5732   4.263   1.307   2.275
 1426SOL     OW 5733   4.254   1.552   2.404
 1426SOL    HW2 5734   4.247   1.467   2.360
 1426SOL    HW3 5735   4.320   1.599   2.353
 1426SOL    MW4 5736   4.262   1.547   2.391
 1427SOL     OW 5737   4.044   1.685   2.285
 1427SOL    HW2 5738   4.118   1.644   2.329
 1427SOL    HW3 5739   3.969   1.631   2.309
 1427SOL    MW4 5740   4.044   1.673   2.294
 1428SOL     OW 5741   4.006   1.952   2.347
 1428SOL    HW2 5742   4.017   1.947   2.442
 1428SOL    HW3 5743   4.008   1.861   2.318
 1428SOL    MW4 5744   4.008   1.939   2.355
 1429SOL     OW 5745   4.263   2.035   2.269
 1429SOL    HW2 5746   4.273   2.125   2.302
 1429SOL    HW3 5747   4.175   2.009   2.296
 1429SOL    MW4 5748   4.253   2.044   2.277
 1430SOL     OW 5749   4.260   2.304   2.344
 1430SOL    HW2 5750   4.177   2.339   2.312
 1430SOL    HW3 5751   4.327   2.362   2.308
 1430SOL    MW4 5752   4.258   2.316   2.335
 1431SOL     OW 5753   4.047   2.429   2.230
 1431SOL    HW2 5754   4.050   2.524   2.241
 1431SOL    HW3 5755   3.966   2.402   2.274
 1431SOL    MW4 5756   4.036   2.438   2.238
 1432SOL     OW 5757   4.025   2.708   2.300
 1432SOL    HW2 5758   4.036   2.707   2.395
 1432SOL    HW3 5759   3.947   2.761   2.285
 1432SOL    MW4 5760   4.016   2.715   2.310
 1433SOL     OW 5761   4.233   2.874   2.267
 1433SOL    HW2 5762   4.153   2.821   2.265
 1433SOL    HW3 5763   4.298   2.817   2.309
 1433SOL    MW4 5764   4.231   2.859   2.272
 1434SOL     OW 5765   4.262   3.117   2.379
 1434SOL    HW2 5766   4.235   3.029   2.353
 1434SOL    HW3 5767   4.341   3.134   2.328
 1434SOL    MW4 5768   4.269   3.108   2.369
 1435SOL     OW 5769   4.021   3.227   2.311
 1435SOL    HW2 5770   4.027   3.315   2.349
 1435SOL    HW3 5771   4.096   3.181   2.348
 1435SOL    MW4 5772   4.032   3.233   2.321
 1436SOL     OW 5773   4.045   3.481   2.403
 1436SOL    HW2 5774   4.113   3.542   2.375
 1436SOL    HW3 5775   3.963   3.521   2.373
 1436SOL    MW4 5776   4.043   3.494   2.395
 1437SOL     OW 5777   4.260   3.641   2.283
 1437SOL    HW2 5778   4.270   3.735   2.272
 1437SOL    HW3 5779   4.243   3.608   2.195
 1437SOL    MW4 5780   4.259   3.649   2.270
 1438SOL     OW 5781   4.320   3.914   2.357
 1438SOL    HW2 5782   4.312   3.906   2.452
 1438SOL    HW3 5783   4.397   3.968   2.343
 1438SOL    MW4 5784   4.329   3.920   2.368
 1439SOL     OW 5785   4.066   4.012   2.276
 1439SOL    HW2 5786   4.152   3.980   2.304
 1439SOL    HW3 5787   4.061   3.990   2.183
 1439SOL    MW4 5788   4.077   4.005   2.268
 1440SOL     OW 5789   4.018   4.259   2.383
 1440SOL    HW2 5790   4.087   4.315   2.347
 1440SOL    HW3 5791   4.026   4.177   2.335
 1440SOL    MW4 5792   4.028   4.255   2.372
 1441SOL     OW 5793   4.223   4.413   2.259
 1441SOL    HW2 5794   4.221   4.496   2.307
 1441SOL    HW3 5795   4.292   4.362   2.302
 1441SOL    MW4 5796   4.231   4.417   2.271
 1442SOL     OW 5797   0.213   0.015   2.634
 1442SOL    HW2 5798   0.232  -0.075   2.661
 1442SOL    HW3 5799   0.131   0.037   2.678
 1442SOL    MW4 5800   0.205   0.006   2.643
 1443SOL     OW 5801   4.451   0.114   2.740
 1443SOL    HW2 5802   4.462   0.120   2.835
 1443SOL    HW3 5803   4.438   0.205   2.713
 1443SOL    MW4 5804   4.450   0.127   2.749
 1444SOL     OW 5805   4.439   0.383   2.662
 1444SOL    HW2 5806   4.527   0.417   2.679
 1444SOL    HW3 5807   4.432   0.381   2.567
 1444SOL    MW4 5808   4.450   0.387   2.652
 1445SOL     OW 5809   0.198   0.504   2.740
 1445SOL    HW2 5810   0.216   0.487   2.832
 1445SOL    HW3 5811   0.280   0.482   2.695
 1445SOL    MW4 5812   0.211   0.499   2.746
 1446SOL     OW 5813   0.241   0.746   2.619
 1446SOL    HW2 5814   0.316   0.787   2.662
 1446SOL    HW3 5815   0.220   0.671   2.675
 1446SOL    MW4 5816   0.248   0.742   2.632
 1447SOL     OW 5817   0.017   0.870   2.740
 1447SOL    HW2 5818  -0.058   0.824   2.701
 1447SOL    HW3 5819   0.093   0.830   2.698
 1447SOL    MW4 5820   0.017   0.858   2.730
 1448SOL     OW 5821   4.483   1.137   2.626
 1448SOL    HW2 5822   4.562   1.180   2.660
 1448SOL    HW3 5823   4.493   1.045   2.651
 1448SOL    MW4 5824   4.495   1.131   2.634
 1449SOL     OW 5825   0.209   1.261   2.728
 1449SOL    HW2 5826   0.296   1.229   2.702
 1449SOL    HW3 5827   0.199   1.344   2.682
 1449SOL    MW4 5828   0.219   1.268   2.719
 1450SOL     OW 5829   0.205   1.517   2.612
 1450SOL    HW2 5830   0.280   1.567   2.644
 1450SOL    HW3 5831   0.129   1.559   2.653
 1450SOL    MW4 5832   0.204   1.529   2.621
 1451SOL     OW 5833   0.002   1.641   2.756
 1451SOL    HW2 5834  -0.006   1.635   2.851
 1451SOL    HW3 5835  -0.017   1.732   2.736
 1451SOL    MW4 5836  -0.002   1.652   2.766
 1452SOL     OW 5837   4.455   1.897   2.662
 1452SOL    HW2 5838   4.530   1.948   2.694
 1452SOL    HW3 5839   4.475   1.879   2.570
 1452SOL    MW4 5840   4.467   1.901   2.654
 1453SOL     OW 5841   0.184   2.058   2.726
 1453SOL    HW2 5842   0.258   2.008   2.692
 1453SOL    HW3 5843   0.189   2.142   2.681
 1453SOL    MW4 5844   0.194   2.062   2.715
 1454SOL     OW 5845   0.225   2.326   2.601
 1454SOL    HW2 5846   0.305   2.368   2.632
 1454SOL    HW3 5847   0.155   2.380   2.637
 1454SOL    MW4 5848   0.227   2.338   2.610
 1455SOL     OW 5849   0.004   2.427   2.735
 1455SOL    HW2 5850   0.000   2.422   2.830
 1455SOL    HW3 5851  -0.065   2.367   2.705
 1455SOL    MW4 5852  -0.006   2.418   2.743
 1456SOL     OW 5853   0.020   2.684   2.661
 1456SOL    HW2 5854  -0.056   2.732   2.696
 1456SOL    HW3 5855   0.016   2.599   2.704
 1456SOL    MW4 5856   0.009   2.679   2.672
 1457SOL     OW 5857   0.229   2.845   2.765
 1457SOL    HW2 5858   0.210   2.928   2.721
 1457SOL    HW3 5859   0.164   2.784   2.732
 1457SOL    MW4 5860   0.218   2.848   2.755
 1458SOL     OW 5861   0.197   3.109   2.670
 1458SOL    HW2 5862   0.279   3.153   2.694
 1458SOL    HW3 5863   0.201   3.103   2.575
 1458SOL    MW4 5864   0.209   3.114   2.661
 1459SOL     OW 5865   4.489   3.257   2.759
 1459SOL    HW2 5866   4.415   3.203   2.732
 1459SOL    HW3 5867   4.567   3.206   2.735
 1459SOL    MW4 5868   4.490   3.243   2.753
 1460SOL     OW 5869   4.456   3.496   2.651
 1460SOL    HW2 5870   4.534   3.545   2.676
 1460SOL    HW3 5871   4.471   3.407   2.685
 1460SOL    MW4 5872   4.468   3.490   2.659
 1461SOL     OW 5873   0.184   3.637   2.705
 1461SOL    HW2 5874   0.191   3.642   2.800
 1461SOL    HW3 5875   0.264   3.591   2.678
 1461SOL    MW4 5876   0.195   3.632   2.714
 1462SOL     OW 5877   0.214   3.887   2.626
 1462SOL    HW2 5878   0.196   3.799   2.659
 1462SOL    HW3 5879   0.229   3.875   2.532
 1462SOL    MW4 5880   0.213   3.873   2.618
 1463SOL     OW 5881   0.003   4.031   2.732
 1463SOL    HW2 5882   0.015   4.123   2.707
 1463SOL    HW3 5883   0.079   3.986   2.694
 1463SOL    MW4 5884   0.015   4.037   2.724
 1464SOL     OW 5885   0.021   4.295   2.666
 1464SOL    HW2 5886  -0.060   4.339   2.694
 1464SOL    HW3 5887   0.091   4.343   2.711
 1464SOL    MW4 5888   0.020   4.307   2.676
 1465SOL     OW 5889   0.257   4.439   2.751
 1465SOL    HW2 5890   0.251   4.424   2.845
 1465SOL    HW3 5891   0.320   4.373   2.720
 1465SOL    MW4 5892   0.264   4.428   2.759
 1466SOL     OW 5893   0.623   4.648   2.660
 1466SOL    HW2 5894   0.711   4.680   2.680
 1466SOL    HW3 5895   0.570   4.676   2.734
 1466SOL    MW4 5896   0.627   4.656   2.672
 1467SOL     OW 5897   0.413   0.169   2.784
 1467SOL    HW2 5898   0.395   0.155   2.877
 1467SOL    HW3 5899   0.348   0.115   2.739
 1467SOL    MW4 5900   0.402   0.160   2.791
 1468SOL     OW 5901   0.457   0.419   2.651
 1468SOL    HW2 5902   0.541   0.455   2.682
 1468SOL    HW3 5903   0.454   0.330   2.686
 1468SOL    MW4 5904   0.468   0.412   2.660
 1469SOL     OW 5905   0.703   0.526   2.734
 1469SOL    HW2 5906   0.706   0.527   2.830
 1469SOL    HW3 5907   0.769   0.462   2.709
 1469SOL    MW4 5908   0.712   0.518   2.744
 1470SOL     OW 5909   0.670   0.787   2.636
 1470SOL    HW2 5910   0.751   0.822   2.672
 1470SOL    HW3 5911   0.670   0.695   2.661
 1470SOL    MW4 5912   0.680   0.780   2.644
 1471SOL     OW 5913   0.445   0.872   2.776
 1471SOL    HW2 5914   0.423   0.959   2.743
 1471SOL    HW3 5915   0.529   0.851   2.734
 1471SOL    MW4 5916   0.453   0.880   2.766
 1472SOL     OW 5917   0.433   1.116   2.649
 1472SOL    HW2 5918   0.504   1.177   2.670
 1472SOL    HW3 5919   0.415   1.130   2.556
 1472SOL    MW4 5920   0.440   1.126   2.640
 1473SOL     OW 5921   0.618   1.300   2.693
 1473SOL    HW2 5922   0.624   1.312   2.788
 1473SOL    HW3 5923   0.697   1.252   2.670
 1473SOL    MW4 5924   0.629   1.296   2.702
 1474SOL     OW 5925   0.675   1.566   2.630
 1474SOL    HW2 5926   0.593   1.603   2.662
 1474SOL    HW3 5927   0.662   1.471   2.632
 1474SOL    MW4 5928   0.663   1.559   2.635
 1475SOL     OW 5929   0.412   1.659   2.719
 1475SOL    HW2 5930   0.428   1.663   2.813
 1475SOL    HW3 5931   0.413   1.751   2.690
 1475SOL    MW4 5932   0.414   1.672   2.728
 1476SOL     OW 5933   0.404   1.915   2.650
 1476SOL    HW2 5934   0.477   1.968   2.682
 1476SOL    HW3 5935   0.411   1.920   2.555
 1476SOL    MW4 5936   0.415   1.923   2.642
 1477SOL     OW 5937   0.649   2.052   2.700
 1477SOL    HW2 5938   0.647   2.044   2.795
 1477SOL    HW3 5939   0.732   2.013   2.674
 1477SOL    MW4 5940   0.660   2.046   2.709
 1478SOL     OW 5941   0.675   2.317   2.641
 1478SOL    HW2 5942   0.755   2.357   2.674
 1478SOL    HW3 5943   0.670   2.233   2.686
 1478SOL    MW4 5944   0.685   2.311   2.651
 1479SOL     OW 5945   0.439   2.434   2.728
 1479SOL    HW2 5946   0.445   2.528   2.712
 1479SOL    HW3 5947   0.525   2.399   2.701
 1479SOL    MW4 5948   0.452   2.442   2.722
 1480SOL     OW 5949   0.439   2.709   2.649
 1480SOL    HW2 5950   0.513   2.767   2.665
 1480SOL    HW3 5951   0.366   2.749   2.697
 1480SOL    MW4 5952   0.439   2.722   2.658
 1481SOL     OW 5953   0.673   2.833   2.723
 1481SOL    HW2 5954   0.664   2.821   2.818
 1481SOL    HW3 5955   0.671   2.928   2.711
 1481SOL    MW4 5956   0.671   2.844   2.734
 1482SOL     OW 5957   0.684   3.106   2.648
 1482SOL    HW2 5958   0.770   3.110   2.689
 1482SOL    HW3 5959   0.703   3.105   2.554
 1482SOL    MW4 5960   0.698   3.107   2.641
 1483SOL     OW 5961   0.439   3.236   2.734
 1483SOL    HW2 5962   0.461   3.247   2.827
 1483SOL    HW3 5963   0.519   3.201   2.695
 1483SOL    MW4 5964   0.453   3.233   2.741
 1484SOL     OW 5965   0.419   3.496   2.635
 1484SOL    HW2 5966   0.419   3.405   2.667
 1484SOL    HW3 5967   0.421   3.487   2.539
 1484SOL    MW4 5968   0.419   3.483   2.626
 1485SOL     OW 5969   0.663   3.616   2.706
 1485SOL    HW2 5970   0.674   3.630   2.800
 1485SOL    HW3 5971   0.582   3.566   2.699
 1485SOL    MW4 5972   0.653   3.611   2.718
 1486SOL     OW 5973   0.663   3.879   2.618
 1486SOL    HW2 5974   0.593   3.923   2.667
 1486SOL    HW3 5975   0.658   3.788   2.645
 1486SOL    MW4 5976   0.653   3.873   2.628
 1487SOL     OW 5977   0.448   3.998   2.747
 1487SOL    HW2 5978   0.445   4.090   2.719
 1487SOL    HW3 5979   0.368   3.960   2.710
 1487SOL    MW4 5980   0.437   4.005   2.738
 1488SOL     OW 5981   0.448   4.246   2.659
 1488SOL    HW2 5982   0.520   4.300   2.689
 1488SOL    HW3 5983   0.441   4.263   2.566
 1488SOL    MW4 5984   0.456   4.255   2.651
 1489SOL     OW 5985   0.656   4.386   2.743
 1489SOL    HW2 5986   0.733   4.356   2.694
 1489SOL    HW3 5987   0.648   4.479   2.720
 1489SOL    MW4 5988   0.665   4.395   2.733
 1490SOL     OW 5989   1.128   4.638   2.635
 1490SOL    HW2 5990   1.202   4.682   2.677
 1490SOL    HW3 5991   1.137   4.546   2.660
 1490SOL    MW4 5992   1.139   4.632   2.644
 1491SOL     OW 5993   0.886   0.093   2.692
 1491SOL    HW2 5994   0.897   0.089   2.787
 1491SOL    HW3 5995   0.970   0.063   2.658
 1491SOL    MW4 5996   0.899   0.088   2.700
 1492SOL     OW 5997   0.926   0.372   2.644
 1492SOL    HW2 5998   0.911   0.278   2.654
 1492SOL    HW3 5999   0.909   0.389   2.552
 1492SOL    MW4 6000   0.922   0.362   2.633
 1493SOL     OW 6001   1.154   0.489   2.757
 1493SOL    HW2 6002   1.129   0.573   2.718
 1493SOL    HW3 6003   1.090   0.427   2.723
 1493SOL    MW4 6004   1.142   0.492   2.747
 1494SOL     OW 6005   1.105   0.730   2.638
 1494SOL    HW2 6006   1.178   0.781   2.672
 1494SOL    HW3 6007   1.124   0.719   2.545
 1494SOL    MW4 6008   1.117   0.735   2.630
 1495SOL     OW 6009   0.925   0.925   2.716
 1495SOL    HW2 6010   0.925   0.918   2.811
 1495SOL    HW3 6011   0.985   0.857   2.687
 1495SOL    MW4 6012   0.933   0.915   2.725
 1496SOL     OW 6013   0.870   1.192   2.632
 1496SOL    HW2 6014   0.865   1.099   2.653
 1496SOL    HW3 6015   0.880   1.195   2.537
 1496SOL    MW4 6016   0.870   1.180   2.623
 1497SOL     OW 6017   1.112   1.284   2.727
 1497SOL    HW2 6018   1.141   1.362   2.680
 1497SOL    HW3 6019   1.027   1.263   2.687
 1497SOL    MW4 6020   1.105   1.292   2.715
 1498SOL     OW 6021   1.144   1.541   2.625
 1498SOL    HW2 6022   1.062   1.584   2.649
 1498SOL    HW3 6023   1.145   1.544   2.529
 1498SOL    MW4 6024   1.133   1.547   2.615
 1499SOL     OW 6025   0.924   1.685   2.713
 1499SOL    HW2 6026   0.907   1.694   2.807
 1499SOL    HW3 6027   0.846   1.642   2.679
 1499SOL    MW4 6028   0.912   1.681   2.721
 1500SOL     OW 6029   0.878   1.939   2.608
 1500SOL    HW2 6030   0.947   1.990   2.651
 1500SOL    HW3 6031   0.895   1.849   2.635
 1500SOL    MW4 6032   0.889   1.934   2.617
 1501SOL     OW 6033   1.113   2.065   2.725
 1501SOL    HW2 6034   1.189   2.018   2.692
 1501SOL    HW3 6035   1.127   2.156   2.697
 1501SOL    MW4 6036   1.125   2.071   2.717
 1502SOL     OW 6037   1.132   2.321   2.637
 1502SOL    HW2 6038   1.202   2.367   2.683
 1502SOL    HW3 6039   1.156   2.328   2.545
 1502SOL    MW4 6040   1.144   2.328   2.631
 1503SOL     OW 6041   0.911   2.466   2.727
 1503SOL    HW2 6042   0.912   2.550   2.681
 1503SOL    HW3 6043   0.984   2.417   2.690
 1503SOL    MW4 6044   0.921   2.470   2.716
 1504SOL     OW 6045   0.886   2.740   2.600
 1504SOL    HW2 6046   0.952   2.776   2.660
 1504SOL    HW3 6047   0.802   2.769   2.637
 1504SOL    MW4 6048   0.884   2.749   2.613
 1505SOL     OW 6049   1.083   2.832   2.755
 1505SOL    HW2 6050   1.106   2.825   2.848
 1505SOL    HW3 6051   1.159   2.795   2.709
 1505SOL    MW4 6052   1.096   2.826   2.761
 1506SOL     OW 6053   1.148   3.096   2.680
 1506SOL    HW2 6054   1.122   3.007   2.703
 1506SOL    HW3 6055   1.136   3.101   2.585
 1506SOL    MW4 6056   1.143   3.085   2.670
 1507SOL     OW 6057   0.919   3.208   2.768
 1507SOL    HW2 6058   0.903   3.286   2.715
 1507SOL    HW3 6059   1.006   3.179   2.741
 1507SOL    MW4 6060   0.928   3.215   2.758
 1508SOL     OW 6061   0.887   3.462   2.640
 1508SOL    HW2 6062   0.961   3.508   2.682
 1508SOL    HW3 6063   0.810   3.512   2.669
 1508SOL    MW4 6064   0.887   3.475   2.649
 1509SOL     OW 6065   1.102   3.599   2.740
 1509SOL    HW2 6066   1.101   3.626   2.832
 1509SOL    HW3 6067   1.100   3.681   2.691
 1509SOL    MW4 6068   1.102   3.613   2.746
 1510SOL     OW 6069   1.098   3.851   2.627
 1510SOL    HW2 6070   1.178   3.889   2.664
 1510SOL    HW3 6071   1.110   3.859   2.532
 1510SOL    MW4 6072   1.110   3.857   2.619
 1511SOL     OW 6073   0.893   4.008   2.721
 1511SOL    HW2 6074   0.958   3.963   2.666
 1511SOL    HW3 6075   0.809   3.970   2.694
 1511SOL    MW4 6076   0.890   3.997   2.710
 1512SOL     OW 6077   0.888   4.266   2.619
 1512SOL    HW2 6078   0.892   4.174   2.644
 1512SOL    HW3 6079   0.884   4.265   2.523
 1512SOL    MW4 6080   0.888   4.254   2.609
 1513SOL     OW 6081   1.144   4.351   2.714
 1513SOL    HW2 6082   1.137   4.378   2.805
 1513SOL    HW3 6083   1.055   4.327   2.689
 1513SOL    MW4 6084   1.131   4.351   2.723
 1514SOL     OW 6085   1.564   4.664   2.621
 1514SOL    HW2 6086   1.562   4.575   2.657
 1514SOL    HW3 6087   1.558   4.651   2.526
 1514SOL    MW4 6088   1.563   4.650   2.613
 1515SOL     OW 6089   1.347   0.108   2.738
 1515SOL    HW2 6090   1.352   0.198   2.703
 1515SOL    HW3 6091   1.418   0.062   2.695
 1515SOL    MW4 6092   1.357   0.114   2.728
 1516SOL     OW 6093   1.377   0.363   2.654
 1516SOL    HW2 6094   1.451   0.403   2.698
 1516SOL    HW3 6095   1.303   0.420   2.675
 1516SOL    MW4 6096   1.377   0.376   2.663
 1517SOL     OW 6097   1.590   0.509   2.778
 1517SOL    HW2 6098   1.668   0.470   2.739
 1517SOL    HW3 6099   1.576   0.589   2.728
 1517SOL    MW4 6100   1.599   0.515   2.766
 1518SOL     OW 6101   1.541   0.762   2.669
 1518SOL    HW2 6102   1.465   0.816   2.691
 1518SOL    HW3 6103   1.552   0.774   2.574
 1518SOL    MW4 6104   1.533   0.771   2.659
 1519SOL     OW 6105   1.301   0.889   2.741
 1519SOL    HW2 6106   1.328   0.898   2.832
 1519SOL    HW3 6107   1.304   0.978   2.705
 1519SOL    MW4 6108   1.305   0.902   2.748
 1520SOL     OW 6109   1.344   1.167   2.618
 1520SOL    HW2 6110   1.409   1.229   2.652
 1520SOL    HW3 6111   1.264   1.188   2.667
 1520SOL    MW4 6112   1.342   1.178   2.629
 1521SOL     OW 6113   1.554   1.307   2.727
 1521SOL    HW2 6114   1.535   1.308   2.821
 1521SOL    HW3 6115   1.631   1.252   2.718
 1521SOL    MW4 6116   1.561   1.300   2.738
 1522SOL     OW 6117   1.592   1.563   2.616
 1522SOL    HW2 6118   1.580   1.472   2.644
 1522SOL    HW3 6119   1.597   1.558   2.521
 1522SOL    MW4 6120   1.591   1.550   2.607
 1523SOL     OW 6121   1.364   1.682   2.733
 1523SOL    HW2 6122   1.435   1.637   2.687
 1523SOL    HW3 6123   1.285   1.633   2.709
 1523SOL    MW4 6124   1.363   1.669   2.724
 1524SOL     OW 6125   1.324   1.929   2.618
 1524SOL    HW2 6126   1.349   1.844   2.654
 1524SOL    HW3 6127   1.337   1.920   2.524
 1524SOL    MW4 6128   1.329   1.917   2.610
 1525SOL     OW 6129   1.531   2.073   2.701
 1525SOL    HW2 6130   1.608   2.017   2.696
 1525SOL    HW3 6131   1.458   2.017   2.674
 1525SOL    MW4 6132   1.531   2.058   2.697
 1526SOL     OW 6133   1.571   2.328   2.610
 1526SOL    HW2 6134   1.658   2.352   2.640
 1526SOL    HW3 6135   1.553   2.244   2.652
 1526SOL    MW4 6136   1.580   2.320   2.619
 1527SOL     OW 6137   1.339   2.467   2.745
 1527SOL    HW2 6138   1.341   2.561   2.725
 1527SOL    HW3 6139   1.419   2.432   2.706
 1527SOL    MW4 6140   1.349   2.475   2.738
 1528SOL     OW 6141   1.301   2.716   2.650
 1528SOL    HW2 6142   1.378   2.772   2.664
 1528SOL    HW3 6143   1.285   2.721   2.555
 1528SOL    MW4 6144   1.309   2.724   2.639
 1529SOL     OW 6145   1.549   2.831   2.733
 1529SOL    HW2 6146   1.557   2.828   2.828
 1529SOL    HW3 6147   1.627   2.787   2.700
 1529SOL    MW4 6148   1.561   2.825   2.741
 1530SOL     OW 6149   1.596   3.062   2.602
 1530SOL    HW2 6150   1.666   3.119   2.633
 1530SOL    HW3 6151   1.592   2.990   2.666
 1530SOL    MW4 6152   1.604   3.060   2.615
 1531SOL     OW 6153   1.404   3.222   2.745
 1531SOL    HW2 6154   1.479   3.178   2.705
 1531SOL    HW3 6155   1.328   3.172   2.714
 1531SOL    MW4 6156   1.404   3.210   2.736
 1532SOL     OW 6157   1.369   3.497   2.652
 1532SOL    HW2 6158   1.376   3.417   2.705
 1532SOL    HW3 6159   1.281   3.529   2.669
 1532SOL    MW4 6160   1.359   3.491   2.661
 1533SOL     OW 6161   1.574   3.662   2.755
 1533SOL    HW2 6162   1.659   3.622   2.735
 1533SOL    HW3 6163   1.510   3.601   2.719
 1533SOL    MW4 6164   1.577   3.649   2.748
 1534SOL     OW 6165   1.565   3.904   2.632
 1534SOL    HW2 6166   1.475   3.936   2.643
 1534SOL    HW3 6167   1.568   3.822   2.682
 1534SOL    MW4 6168   1.553   3.897   2.640
 1535SOL     OW 6169   1.312   3.984   2.709
 1535SOL    HW2 6170   1.323   3.999   2.803
 1535SOL    HW3 6171   1.329   4.069   2.669
 1535SOL    MW4 6172   1.316   3.997   2.716
 1536SOL     OW 6173   1.369   4.231   2.607
 1536SOL    HW2 6174   1.284   4.266   2.637
 1536SOL    HW3 6175   1.366   4.240   2.512
 1536SOL    MW4 6176   1.357   4.237   2.598
 1537SOL     OW 6177   1.572   4.405   2.727
 1537SOL    HW2 6178   1.563   4.404   2.823
 1537SOL    HW3 6179   1.498   4.353   2.696
 1537SOL    MW4 6180   1.561   4.398   2.736
 1538SOL     OW 6181   2.008   4.634   2.642
 1538SOL    HW2 6182   2.087   4.678   2.673
 1538SOL    HW3 6183   2.012   4.641   2.547
 1538SOL    MW4 6184   2.019   4.641   2.633
 1539SOL     OW 6185   1.803   0.135   2.720
 1539SOL    HW2 6186   1.874   0.072   2.708
 1539SOL    HW3 6187   1.733   0.105   2.663
 1539SOL    MW4 6188   1.803   0.123   2.711
 1540SOL     OW 6189   1.830   0.406   2.676
 1540SOL    HW2 6190   1.898   0.449   2.729
 1540SOL    HW3 6191   1.835   0.314   2.701
 1540SOL    MW4 6192   1.840   0.400   2.687
 1541SOL     OW 6193   2.051   0.511   2.803
 1541SOL    HW2 6194   2.110   0.453   2.755
 1541SOL    HW3 6195   2.044   0.589   2.748
 1541SOL    MW4 6196   2.058   0.514   2.790
 1542SOL     OW 6197   2.010   0.751   2.658
 1542SOL    HW2 6198   1.923   0.782   2.682
 1542SOL    HW3 6199   2.009   0.748   2.562
 1542SOL    MW4 6200   1.998   0.755   2.648
 1543SOL     OW 6201   1.781   0.863   2.767
 1543SOL    HW2 6202   1.768   0.957   2.752
 1543SOL    HW3 6203   1.697   0.824   2.746
 1543SOL    MW4 6204   1.768   0.870   2.762
 1544SOL     OW 6205   1.777   1.148   2.663
 1544SOL    HW2 6206   1.866   1.183   2.667
 1544SOL    HW3 6207   1.759   1.139   2.570
 1544SOL    MW4 6208   1.786   1.151   2.651
 1545SOL     OW 6209   2.028   1.246   2.713
 1545SOL    HW2 6210   2.027   1.225   2.806
 1545SOL    HW3 6211   2.110   1.208   2.681
 1545SOL    MW4 6212   2.039   1.238   2.721
 1546SOL     OW 6213   2.040   1.532   2.675
 1546SOL    HW2 6214   1.964   1.558   2.727
 1546SOL    HW3 6215   2.055   1.440   2.698
 1546SOL    MW4 6216   2.032   1.523   2.685
 1547SOL     OW 6217   1.806   1.646   2.772
 1547SOL    HW2 6218   1.796   1.627   2.866
 1547SOL    HW3 6219   1.730   1.606   2.731
 1547SOL    MW4 6220   1.795   1.638   2.779
 1548SOL     OW 6221   1.749   1.899   2.653
 1548SOL    HW2 6222   1.826   1.951   2.675
 1548SOL    HW3 6223   1.766   1.813   2.693
 1548SOL    MW4 6224   1.762   1.894   2.661
 1549SOL     OW 6225   1.975   2.022   2.693
 1549SOL    HW2 6226   1.987   2.037   2.787
 1549SOL    HW3 6227   1.974   2.109   2.654
 1549SOL    MW4 6228   1.976   2.035   2.700
 1550SOL     OW 6229   1.985   2.286   2.602
 1550SOL    HW2 6230   2.061   2.318   2.650
 1550SOL    HW3 6231   1.990   2.332   2.518
 1550SOL    MW4 6232   1.996   2.297   2.597
 1551SOL     OW 6233   1.794   2.446   2.723
 1551SOL    HW2 6234   1.795   2.421   2.815
 1551SOL    HW3 6235   1.841   2.376   2.678
 1551SOL    MW4 6236   1.800   2.434   2.729
 1552SOL     OW 6237   1.778   2.716   2.636
 1552SOL    HW2 6238   1.788   2.627   2.671
 1552SOL    HW3 6239   1.764   2.703   2.542
 1552SOL    MW4 6240   1.778   2.702   2.628
 1553SOL     OW 6241   2.021   2.847   2.724
 1553SOL    HW2 6242   2.090   2.783   2.708
 1553SOL    HW3 6243   1.940   2.801   2.704
 1553SOL    MW4 6244   2.019   2.833   2.719
 1554SOL     OW 6245   2.006   3.106   2.644
 1554SOL    HW2 6246   2.006   3.013   2.670
 1554SOL    HW3 6247   2.016   3.104   2.549
 1554SOL    MW4 6248   2.007   3.093   2.635
 1555SOL     OW 6249   1.766   3.231   2.729
 1555SOL    HW2 6250   1.776   3.321   2.698
 1555SOL    HW3 6251   1.850   3.190   2.712
 1555SOL    MW4 6252   1.778   3.237   2.723
 1556SOL     OW 6253   1.769   3.484   2.657
 1556SOL    HW2 6254   1.855   3.514   2.688
 1556SOL    HW3 6255   1.778   3.479   2.562
 1556SOL    MW4 6256   1.782   3.487   2.649
 1557SOL     OW 6257   1.998   3.623   2.757
 1557SOL    HW2 6258   2.010   3.631   2.852
 1557SOL    HW3 6259   2.076   3.577   2.727
 1557SOL    MW4 6260   2.010   3.618   2.766
 1558SOL     OW 6261   2.015   3.881   2.635
 1558SOL    HW2 6262   1.940   3.922   2.679
 1558SOL    HW3 6263   2.019   3.793   2.672
 1558SOL    MW4 6264   2.005   3.875   2.646
 1559SOL     OW 6265   1.805   4.005   2.741
 1559SOL    HW2 6266   1.802   4.098   2.717
 1559SOL    HW3 6267   1.725   3.968   2.703
 1559SOL    MW4 6268   1.794   4.012   2.733
 1560SOL     OW 6269   1.798   4.280   2.638
 1560SOL    HW2 6270   1.715   4.318   2.667
 1560SOL    HW3 6271   1.798   4.293   2.543
 1560SOL    MW4 6272   1.787   4.287   2.629
 1561SOL     OW 6273   2.013   4.382   2.766
 1561SOL    HW2 6274   1.937   4.347   2.719
 1561SOL    HW3 6275   2.012   4.476   2.746
 1561SOL    MW4 6276   2.003   4.390   2.757
 1562SOL     OW 6277   2.498   0.008   2.648
 1562SOL    HW2 6278   2.572   0.067   2.665
 1562SOL    HW3 6279   2.491   0.004   2.553
 1562SOL    MW4 6280   2.507   0.015   2.638
 1563SOL     OW 6281   2.239   0.103   2.730
 1563SOL    HW2 6282   2.236   0.107   2.826
 1563SOL    HW3 6283   2.323   0.062   2.710
 1563SOL    MW4 6284   2.250   0.098   2.740
 1564SOL     OW 6285   2.236   0.363   2.645
 1564SOL    HW2 6286   2.231   0.274   2.681
 1564SOL    HW3 6287   2.250   0.350   2.551
 1564SOL    MW4 6288   2.237   0.349   2.638
 1565SOL     OW 6289   2.442   0.477   2.776
 1565SOL    HW2 6290   2.467   0.559   2.735
 1565SOL    HW3 6291   2.359   0.453   2.735
 1565SOL    MW4 6292   2.434   0.484   2.765
 1566SOL     OW 6293   2.504   0.735   2.666
 1566SOL    HW2 6294   2.419   0.767   2.696
 1566SOL    HW3 6295   2.502   0.746   2.571
 1566SOL    MW4 6296   2.492   0.741   2.657
 1567SOL     OW 6297   2.263   0.846   2.736
 1567SOL    HW2 6298   2.261   0.870   2.829
 1567SOL    HW3 6299   2.172   0.824   2.715
 1567SOL    MW4 6300   2.251   0.846   2.745
 1568SOL     OW 6301   2.285   1.123   2.660
 1568SOL    HW2 6302   2.282   1.027   2.664
 1568SOL    HW3 6303   2.289   1.143   2.566
 1568SOL    MW4 6304   2.285   1.113   2.648
 1569SOL     OW 6305   2.486   1.303   2.734
 1569SOL    HW2 6306   2.555   1.250   2.694
 1569SOL    HW3 6307   2.408   1.247   2.731
 1569SOL    MW4 6308   2.485   1.289   2.728
 1570SOL     OW 6309   2.490   1.560   2.630
 1570SOL    HW2 6310   2.418   1.609   2.671
 1570SOL    HW3 6311   2.491   1.476   2.675
 1570SOL    MW4 6312   2.480   1.556   2.641
 1571SOL     OW 6313   2.264   1.691   2.763
 1571SOL    HW2 6314   2.252   1.774   2.717
 1571SOL    HW3 6315   2.183   1.643   2.746
 1571SOL    MW4 6316   2.251   1.695   2.755
 1572SOL     OW 6317   2.233   1.941   2.640
 1572SOL    HW2 6318   2.146   1.971   2.667
 1572SOL    HW3 6319   2.234   1.952   2.545
 1572SOL    MW4 6320   2.221   1.946   2.631
 1573SOL     OW 6321   2.478   1.998   2.762
 1573SOL    HW2 6322   2.486   2.091   2.745
 1573SOL    HW3 6323   2.399   1.971   2.713
 1573SOL    MW4 6324   2.468   2.006   2.753
 1574SOL     OW 6325   2.458   2.254   2.682
 1574SOL    HW2 6326   2.528   2.305   2.723
 1574SOL    HW3 6327   2.453   2.288   2.593
 1574SOL    MW4 6328   2.467   2.265   2.675
 1575SOL     OW 6329   2.230   2.403   2.739
 1575SOL    HW2 6330   2.246   2.426   2.831
 1575SOL    HW3 6331   2.303   2.345   2.716
 1575SOL    MW4 6332   2.242   2.398   2.748
 1576SOL     OW 6333   2.216   2.667   2.636
 1576SOL    HW2 6334   2.289   2.720   2.667
 1576SOL    HW3 6335   2.228   2.582   2.676
 1576SOL    MW4 6336   2.227   2.663   2.645
 1577SOL     OW 6337   2.415   2.826   2.773
 1577SOL    HW2 6338   2.493   2.779   2.743
 1577SOL    HW3 6339   2.425   2.914   2.737
 1577SOL    MW4 6340   2.427   2.832   2.764
 1578SOL     OW 6341   2.455   3.111   2.675
 1578SOL    HW2 6342   2.363   3.137   2.687
 1578SOL    HW3 6343   2.467   3.107   2.580
 1578SOL    MW4 6344   2.444   3.114   2.664
 1579SOL     OW 6345   2.228   3.244   2.731
 1579SOL    HW2 6346   2.230   3.222   2.825
 1579SOL    HW3 6347   2.151   3.198   2.698
 1579SOL    MW4 6348   2.218   3.235   2.739
 1580SOL     OW 6349   2.227   3.502   2.645
 1580SOL    HW2 6350   2.317   3.526   2.667
 1580SOL    HW3 6351   2.219   3.410   2.673
 1580SOL    MW4 6352   2.238   3.493   2.651
 1581SOL     OW 6353   2.488   3.596   2.706
 1581SOL    HW2 6354   2.488   3.597   2.802
 1581SOL    HW3 6355   2.472   3.687   2.681
 1581SOL    MW4 6356   2.486   3.608   2.715
 1582SOL     OW 6357   2.469   3.859   2.634
 1582SOL    HW2 6358   2.538   3.909   2.678
 1582SOL    HW3 6359   2.387   3.894   2.670
 1582SOL    MW4 6360   2.467   3.870   2.645
 1583SOL     OW 6361   2.235   4.020   2.718
 1583SOL    HW2 6362   2.225   4.012   2.813
 1583SOL    HW3 6363   2.168   3.961   2.683
 1583SOL    MW4 6364   2.225   4.011   2.726
 1584SOL     OW 6365   2.251   4.309   2.665
 1584SOL    HW2 6366   2.247   4.215   2.679
 1584SOL    HW3 6367   2.172   4.343   2.708
 1584SOL    MW4 6368   2.240   4.301   2.673
 1585SOL     OW 6369   2.464   4.436   2.792
 1585SOL    HW2 6370   2.386   4.397   2.750
 1585SOL    HW3 6371   2.478   4.518   2.745
 1585SOL    MW4 6372   2.455   4.441   2.781
 1586SOL     OW 6373   2.907   4.657   2.639
 1586SOL    HW2 6374   2.984   4.699   2.676
 1586SOL    HW3 6375   2.913   4.675   2.545
 1586SOL    MW4 6376   2.918   4.665   2.631
 1587SOL     OW 6377   2.732   0.140   2.756
 1587SOL    HW2 6378   2.718   0.123   2.849
 1587SOL    HW3 6379   2.794   0.073   2.728
 1587SOL    MW4 6380   2.738   0.129   2.764
 1588SOL     OW 6381   2.657   0.384   2.637
 1588SOL    HW2 6382   2.681   0.298   2.673
 1588SOL    HW3 6383   2.585   0.414   2.693
 1588SOL    MW4 6384   2.651   0.377   2.649
 1589SOL     OW 6385   2.905   0.525   2.748
 1589SOL    HW2 6386   2.912   0.613   2.711
 1589SOL    HW3 6387   2.823   0.491   2.713
 1589SOL    MW4 6388   2.896   0.532   2.739
 1590SOL     OW 6389   2.900   0.785   2.615
 1590SOL    HW2 6390   2.977   0.826   2.656
 1590SOL    HW3 6391   2.826   0.819   2.665
 1590SOL    MW4 6392   2.901   0.795   2.627
 1591SOL     OW 6393   2.693   0.894   2.787
 1591SOL    HW2 6394   2.697   0.892   2.883
 1591SOL    HW3 6395   2.629   0.827   2.764
 1591SOL    MW4 6396   2.685   0.885   2.797
 1592SOL     OW 6397   2.698   1.145   2.654
 1592SOL    HW2 6398   2.784   1.182   2.673
 1592SOL    HW3 6399   2.693   1.067   2.708
 1592SOL    MW4 6400   2.708   1.140   2.664
 1593SOL     OW 6401   2.929   1.258   2.737
 1593SOL    HW2 6402   2.934   1.261   2.833
 1593SOL    HW3 6403   3.017   1.230   2.710
 1593SOL    MW4 6404   2.941   1.254   2.746
 1594SOL     OW 6405   2.981   1.511   2.626
 1594SOL    HW2 6406   2.912   1.572   2.654
 1594SOL    HW3 6407   2.958   1.428   2.669
 1594SOL    MW4 6408   2.969   1.508   2.636
 1595SOL     OW 6409   2.746   1.649   2.741
 1595SOL    HW2 6410   2.750   1.652   2.837
 1595SOL    HW3 6411   2.666   1.600   2.721
 1595SOL    MW4 6412   2.736   1.643   2.751
 1596SOL     OW 6413   2.714   1.910   2.654
 1596SOL    HW2 6414   2.711   1.816   2.670
 1596SOL    HW3 6415   2.633   1.943   2.693
 1596SOL    MW4 6416   2.703   1.902   2.661
 1597SOL     OW 6417   2.912   2.044   2.768
 1597SOL    HW2 6418   2.899   2.125   2.719
 1597SOL    HW3 6419   2.844   1.985   2.735
 1597SOL    MW4 6420   2.901   2.046   2.757
 1598SOL     OW 6421   2.894   2.311   2.639
 1598SOL    HW2 6422   2.974   2.352   2.670
 1598SOL    HW3 6423   2.824   2.360   2.682
 1598SOL    MW4 6424   2.895   2.323   2.649
 1599SOL     OW 6425   2.670   2.409   2.764
 1599SOL    HW2 6426   2.663   2.427   2.857
 1599SOL    HW3 6427   2.649   2.493   2.722
 1599SOL    MW4 6428   2.666   2.423   2.771
 1600SOL     OW 6429   2.629   2.666   2.685
 1600SOL    HW2 6430   2.708   2.709   2.718
 1600SOL    HW3 6431   2.637   2.673   2.590
 1600SOL    MW4 6432   2.641   2.673   2.677
 1601SOL     OW 6433   2.849   2.800   2.771
 1601SOL    HW2 6434   2.877   2.818   2.861
 1601SOL    HW3 6435   2.867   2.881   2.723
 1601SOL    MW4 6436   2.855   2.813   2.777
 1602SOL     OW 6437   2.895   3.036   2.632
 1602SOL    HW2 6438   2.827   3.096   2.664
 1602SOL    HW3 6439   2.900   3.052   2.538
 1602SOL    MW4 6440   2.887   3.046   2.624
 1603SOL     OW 6441   2.702   3.206   2.727
 1603SOL    HW2 6442   2.690   3.297   2.698
 1603SOL    HW3 6443   2.613   3.171   2.732
 1603SOL    MW4 6444   2.688   3.214   2.724
 1604SOL     OW 6445   2.701   3.465   2.615
 1604SOL    HW2 6446   2.620   3.504   2.647
 1604SOL    HW3 6447   2.690   3.462   2.520
 1604SOL    MW4 6448   2.689   3.470   2.607
 1605SOL     OW 6449   2.928   3.617   2.701
 1605SOL    HW2 6450   2.920   3.616   2.797
 1605SOL    HW3 6451   2.851   3.568   2.671
 1605SOL    MW4 6452   2.917   3.611   2.710
 1606SOL     OW 6453   2.894   3.879   2.610
 1606SOL    HW2 6454   2.971   3.931   2.632
 1606SOL    HW3 6455   2.918   3.789   2.634
 1606SOL    MW4 6456   2.907   3.874   2.616
 1607SOL     OW 6457   2.679   3.989   2.732
 1607SOL    HW2 6458   2.672   4.081   2.708
 1607SOL    HW3 6459   2.759   3.958   2.689
 1607SOL    MW4 6460   2.689   3.997   2.723
 1608SOL     OW 6461   2.662   4.255   2.650
 1608SOL    HW2 6462   2.749   4.295   2.661
 1608SOL    HW3 6463   2.601   4.317   2.690
 1608SOL    MW4 6464   2.666   4.268   2.657
 1609SOL     OW 6465   2.904   4.385   2.702
 1609SOL    HW2 6466   2.923   4.370   2.794
 1609SOL    HW3 6467   2.896   4.480   2.693
 1609SOL    MW4 6468   2.905   4.395   2.713
 1610SOL     OW 6469   3.378   4.657   2.612
 1610SOL    HW2 6470   3.373   4.571   2.656
 1610SOL    HW3 6471   3.302   4.705   2.646
 1610SOL    MW4 6472   3.367   4.652   2.623
 1611SOL     OW 6473   3.143   0.102   2.747
 1611SOL    HW2 6474   3.142   0.098   2.843
 1611SOL    HW3 6475   3.137   0.195   2.726
 1611SOL    MW4 6476   3.142   0.114   2.757
 1612SOL     OW 6477   3.107   0.361   2.671
 1612SOL    HW2 6478   3.038   0.421   2.699
 1612SOL    HW3 6479   3.117   0.377   2.577
 1612SOL    MW4 6480   3.099   0.371   2.662
 1613SOL     OW 6481   3.334   0.471   2.768
 1613SOL    HW2 6482   3.338   0.563   2.741
 1613SOL    HW3 6483   3.254   0.438   2.727
 1613SOL    MW4 6484   3.324   0.479   2.759
 1614SOL     OW 6485   3.358   0.712   2.656
 1614SOL    HW2 6486   3.436   0.765   2.674
 1614SOL    HW3 6487   3.338   0.730   2.564
 1614SOL    MW4 6488   3.366   0.722   2.646
 1615SOL     OW 6489   3.120   0.882   2.753
 1615SOL    HW2 6490   3.142   0.887   2.846
 1615SOL    HW3 6491   3.166   0.805   2.722
 1615SOL    MW4 6492   3.129   0.873   2.761
 1616SOL     OW 6493   3.154   1.146   2.646
 1616SOL    HW2 6494   3.151   1.057   2.682
 1616SOL    HW3 6495   3.170   1.133   2.553
 1616SOL    MW4 6496   3.156   1.132   2.638
 1617SOL     OW 6497   3.384   1.261   2.738
 1617SOL    HW2 6498   3.369   1.280   2.831
 1617SOL    HW3 6499   3.305   1.213   2.711
 1617SOL    MW4 6500   3.371   1.257   2.747
 1618SOL     OW 6501   3.373   1.511   2.617
 1618SOL    HW2 6502   3.291   1.547   2.650
 1618SOL    HW3 6503   3.380   1.425   2.659
 1618SOL    MW4 6504   3.363   1.504   2.627
 1619SOL     OW 6505   3.181   1.662   2.735
 1619SOL    HW2 6506   3.169   1.751   2.704
 1619SOL    HW3 6507   3.107   1.613   2.698
 1619SOL    MW4 6508   3.170   1.667   2.726
 1620SOL     OW 6509   3.156   1.927   2.644
 1620SOL    HW2 6510   3.231   1.977   2.675
 1620SOL    HW3 6511   3.085   1.949   2.705
 1620SOL    MW4 6512   3.156   1.936   2.656
 1621SOL     OW 6513   3.368   2.071   2.751
 1621SOL    HW2 6514   3.383   2.063   2.845
 1621SOL    HW3 6515   3.374   2.165   2.733
 1621SOL    MW4 6516   3.371   2.082   2.761
 1622SOL     OW 6517   3.399   2.327   2.694
 1622SOL    HW2 6518   3.479   2.375   2.717
 1622SOL    HW3 6519   3.381   2.352   2.603
 1622SOL    MW4 6520   3.407   2.337   2.685
 1623SOL     OW 6521   3.130   2.463   2.746
 1623SOL    HW2 6522   3.138   2.544   2.697
 1623SOL    HW3 6523   3.206   2.411   2.718
 1623SOL    MW4 6524   3.141   2.466   2.736
 1624SOL     OW 6525   3.081   2.714   2.623
 1624SOL    HW2 6526   3.156   2.770   2.643
 1624SOL    HW3 6527   3.012   2.743   2.683
 1624SOL    MW4 6528   3.082   2.725   2.633
 1625SOL     OW 6529   3.330   2.802   2.720
 1625SOL    HW2 6530   3.328   2.799   2.815
 1625SOL    HW3 6531   3.417   2.770   2.697
 1625SOL    MW4 6532   3.341   2.798   2.729
 1626SOL     OW 6533   3.338   3.070   2.612
 1626SOL    HW2 6534   3.328   2.991   2.665
 1626SOL    HW3 6535   3.344   3.038   2.522
 1626SOL    MW4 6536   3.338   3.055   2.607
 1627SOL     OW 6537   3.108   3.198   2.717
 1627SOL    HW2 6538   3.181   3.165   2.665
 1627SOL    HW3 6539   3.032   3.148   2.685
 1627SOL    MW4 6540   3.107   3.187   2.706
 1628SOL     OW 6541   3.137   3.465   2.628
 1628SOL    HW2 6542   3.111   3.382   2.667
 1628SOL    HW3 6543   3.068   3.526   2.655
 1628SOL    MW4 6544   3.124   3.462   2.637
 1629SOL     OW 6545   3.374   3.612   2.740
 1629SOL    HW2 6546   3.375   3.608   2.835
 1629SOL    HW3 6547   3.295   3.566   2.714
 1629SOL    MW4 6548   3.364   3.606   2.749
 1630SOL     OW 6549   3.353   3.882   2.658
 1630SOL    HW2 6550   3.359   3.791   2.688
 1630SOL    HW3 6551   3.357   3.876   2.563
 1630SOL    MW4 6552   3.354   3.869   2.650
 1631SOL     OW 6553   3.115   4.033   2.713
 1631SOL    HW2 6554   3.123   4.124   2.688
 1631SOL    HW3 6555   3.201   3.994   2.694
 1631SOL    MW4 6556   3.127   4.040   2.707
 1632SOL     OW 6557   3.150   4.321   2.595
 1632SOL    HW2 6558   3.058   4.330   2.620
 1632SOL    HW3 6559   3.149   4.304   2.501
 1632SOL    MW4 6560   3.138   4.320   2.586
 1633SOL     OW 6561   3.386   4.403   2.714
 1633SOL    HW2 6562   3.379   4.415   2.809
 1633SOL    HW3 6563   3.296   4.387   2.686
 1633SOL    MW4 6564   3.373   4.403   2.723
 1634SOL     OW 6565   3.820   4.657   2.612
 1634SOL    HW2 6566   3.846   4.574   2.652
 1634SOL    HW3 6567   3.740   4.681   2.659
 1634SOL    MW4 6568   3.812   4.649   2.624
 1635SOL     OW 6569   3.586   0.103   2.756
 1635SOL    HW2 6570   3.553   0.187   2.724
 1635SOL    HW3 6571   3.516   0.041   2.734
 1635SOL    MW4 6572   3.572   0.106   2.749
 1636SOL     OW 6573   3.533   0.372   2.619
 1636SOL    HW2 6574   3.606   0.410   2.667
 1636SOL    HW3 6575   3.455   0.397   2.669
 1636SOL    MW4 6576   3.532   0.380   2.632
 1637SOL     OW 6577   3.777   0.485   2.746
 1637SOL    HW2 6578   3.795   0.497   2.839
 1637SOL    HW3 6579   3.859   0.454   2.710
 1637SOL    MW4 6580   3.790   0.483   2.754
 1638SOL     OW 6581   3.804   0.748   2.649
 1638SOL    HW2 6582   3.726   0.781   2.693
 1638SOL    HW3 6583   3.815   0.659   2.682
 1638SOL    MW4 6584   3.796   0.740   2.659
 1639SOL     OW 6585   3.570   0.879   2.728
 1639SOL    HW2 6586   3.582   0.892   2.822
 1639SOL    HW3 6587   3.580   0.967   2.691
 1639SOL    MW4 6588   3.573   0.893   2.736
 1640SOL     OW 6589   3.597   1.149   2.609
 1640SOL    HW2 6590   3.673   1.187   2.651
 1640SOL    HW3 6591   3.522   1.184   2.657
 1640SOL    MW4 6592   3.597   1.158   2.621
 1641SOL     OW 6593   3.828   1.270   2.742
 1641SOL    HW2 6594   3.900   1.221   2.703
 1641SOL    HW3 6595   3.835   1.358   2.704
 1641SOL    MW4 6596   3.838   1.276   2.732
 1642SOL     OW 6597   3.830   1.532   2.633
 1642SOL    HW2 6598   3.901   1.589   2.663
 1642SOL    HW3 6599   3.753   1.561   2.682
 1642SOL    MW4 6600   3.829   1.543   2.643
 1643SOL     OW 6601   3.593   1.665   2.730
 1643SOL    HW2 6602   3.595   1.746   2.680
 1643SOL    HW3 6603   3.512   1.622   2.702
 1643SOL    MW4 6604   3.582   1.670   2.720
 1644SOL     OW 6605   3.585   1.929   2.632
 1644SOL    HW2 6606   3.511   1.975   2.672
 1644SOL    HW3 6607   3.565   1.927   2.539
 1644SOL    MW4 6608   3.572   1.934   2.625
 1645SOL     OW 6609   3.811   2.056   2.763
 1645SOL    HW2 6610   3.884   2.002   2.732
 1645SOL    HW3 6611   3.733   2.009   2.734
 1645SOL    MW4 6612   3.811   2.043   2.755
 1646SOL     OW 6613   3.824   2.310   2.614
 1646SOL    HW2 6614   3.812   2.222   2.648
 1646SOL    HW3 6615   3.823   2.299   2.518
 1646SOL    MW4 6616   3.822   2.297   2.606
 1647SOL     OW 6617   3.628   2.461   2.741
 1647SOL    HW2 6618   3.637   2.452   2.836
 1647SOL    HW3 6619   3.699   2.408   2.706
 1647SOL    MW4 6620   3.639   2.453   2.749
 1648SOL     OW 6621   3.597   2.733   2.666
 1648SOL    HW2 6622   3.615   2.644   2.695
 1648SOL    HW3 6623   3.588   2.726   2.571
 1648SOL    MW4 6624   3.598   2.720   2.657
 1649SOL     OW 6625   3.848   2.823   2.743
 1649SOL    HW2 6626   3.911   2.770   2.695
 1649SOL    HW3 6627   3.763   2.793   2.711
 1649SOL    MW4 6628   3.845   2.812   2.733
 1650SOL     OW 6629   3.816   3.082   2.652
 1650SOL    HW2 6630   3.735   3.104   2.697
 1650SOL    HW3 6631   3.833   2.990   2.675
 1650SOL    MW4 6632   3.808   3.073   2.661
 1651SOL     OW 6633   3.577   3.205   2.744
 1651SOL    HW2 6634   3.588   3.293   2.706
 1651SOL    HW3 6635   3.503   3.168   2.696
 1651SOL    MW4 6636   3.569   3.212   2.733
 1652SOL     OW 6637   3.598   3.488   2.628
 1652SOL    HW2 6638   3.678   3.536   2.649
 1652SOL    HW3 6639   3.529   3.533   2.677
 1652SOL    MW4 6640   3.599   3.500   2.637
 1653SOL     OW 6641   3.804   3.604   2.749
 1653SOL    HW2 6642   3.885   3.562   2.718
 1653SOL    HW3 6643   3.800   3.687   2.701
 1653SOL    MW4 6644   3.814   3.609   2.739
 1654SOL     OW 6645   3.792   3.840   2.636
 1654SOL    HW2 6646   3.870   3.879   2.678
 1654SOL    HW3 6647   3.723   3.905   2.650
 1654SOL    MW4 6648   3.793   3.854   2.644
 1655SOL     OW 6649   3.594   4.011   2.697
 1655SOL    HW2 6650   3.592   4.106   2.687
 1655SOL    HW3 6651   3.505   3.982   2.676
 1655SOL    MW4 6652   3.582   4.020   2.693
 1656SOL     OW 6653   3.610   4.286   2.623
 1656SOL    HW2 6654   3.535   4.341   2.645
 1656SOL    HW3 6655   3.606   4.275   2.528
 1656SOL    MW4 6656   3.600   4.292   2.614
 1657SOL     OW 6657   3.851   4.404   2.727
 1657SOL    HW2 6658   3.921   4.344   2.700
 1657SOL    HW3 6659   3.770   4.358   2.703
 1657SOL    MW4 6660   3.850   4.390   2.720
 1658SOL     OW 6661   4.193   4.665   2.672
 1658SOL    HW2 6662   4.127   4.728   2.703
 1658SOL    HW3 6663   4.274   4.693   2.714
 1658SOL    MW4 6664   4.195   4.677   2.682
 1659SOL     OW 6665   3.976   0.182   2.753
 1659SOL    HW2 6666   3.982   0.167   2.848
 1659SOL    HW3 6667   3.894   0.140   2.728
 1659SOL    MW4 6668   3.966   0.175   2.762
 1660SOL     OW 6669   4.030   0.425   2.649
 1660SOL    HW2 6670   4.033   0.342   2.696
 1660SOL    HW3 6671   4.010   0.400   2.558
 1660SOL    MW4 6672   4.028   0.411   2.643
 1661SOL     OW 6673   4.249   0.520   2.795
 1661SOL    HW2 6674   4.178   0.478   2.746
 1661SOL    HW3 6675   4.329   0.480   2.761
 1661SOL    MW4 6676   4.250   0.509   2.784
 1662SOL     OW 6677   4.276   0.747   2.647
 1662SOL    HW2 6678   4.262   0.661   2.686
 1662SOL    HW3 6679   4.266   0.732   2.553
 1662SOL    MW4 6680   4.273   0.733   2.640
 1663SOL     OW 6681   4.034   0.861   2.739
 1663SOL    HW2 6682   4.116   0.824   2.707
 1663SOL    HW3 6683   3.967   0.823   2.683
 1663SOL    MW4 6684   4.036   0.851   2.728
 1664SOL     OW 6685   4.027   1.123   2.621
 1664SOL    HW2 6686   4.088   1.175   2.674
 1664SOL    HW3 6687   4.027   1.036   2.662
 1664SOL    MW4 6688   4.035   1.118   2.633
 1665SOL     OW 6689   4.236   1.249   2.742
 1665SOL    HW2 6690   4.237   1.343   2.724
 1665SOL    HW3 6691   4.318   1.217   2.705
 1665SOL    MW4 6692   4.247   1.257   2.734
 1666SOL     OW 6693   4.268   1.520   2.691
 1666SOL    HW2 6694   4.348   1.569   2.709
 1666SOL    HW3 6695   4.252   1.533   2.597
 1666SOL    MW4 6696   4.276   1.528   2.681
 1667SOL     OW 6697   4.041   1.680   2.741
 1667SOL    HW2 6698   4.037   1.683   2.837
 1667SOL    HW3 6699   4.115   1.623   2.722
 1667SOL    MW4 6700   4.050   1.673   2.751
 1668SOL     OW 6701   4.015   1.925   2.627
 1668SOL    HW2 6702   4.091   1.971   2.665
 1668SOL    HW3 6703   4.018   1.838   2.667
 1668SOL    MW4 6704   4.026   1.920   2.637
 1669SOL     OW 6705   4.234   2.049   2.752
 1669SOL    HW2 6706   4.238   2.129   2.700
 1669SOL    HW3 6707   4.313   2.000   2.728
 1669SOL    MW4 6708   4.245   2.053   2.742
 1670SOL     OW 6709   4.247   2.296   2.633
 1670SOL    HW2 6710   4.178   2.354   2.665
 1670SOL    HW3 6711   4.241   2.302   2.537
 1670SOL    MW4 6712   4.237   2.304   2.624
 1671SOL     OW 6713   4.045   2.465   2.715
 1671SOL    HW2 6714   4.043   2.480   2.809
 1671SOL    HW3 6715   3.961   2.423   2.696
 1671SOL    MW4 6716   4.034   2.461   2.725
 1672SOL     OW 6717   4.071   2.693   2.585
 1672SOL    HW2 6718   4.147   2.737   2.622
 1672SOL    HW3 6719   4.076   2.603   2.619
 1672SOL    MW4 6720   4.081   2.687   2.594
 1673SOL     OW 6721   4.274   2.821   2.724
 1673SOL    HW2 6722   4.285   2.814   2.819
 1673SOL    HW3 6723   4.260   2.914   2.708
 1673SOL    MW4 6724   4.274   2.832   2.734
 1674SOL     OW 6725   4.284   3.097   2.669
 1674SOL    HW2 6726   4.218   3.145   2.719
 1674SOL    HW3 6727   4.261   3.114   2.577
 1674SOL    MW4 6728   4.272   3.106   2.663
 1675SOL     OW 6729   4.065   3.232   2.745
 1675SOL    HW2 6730   4.062   3.328   2.743
 1675SOL    HW3 6731   3.979   3.205   2.712
 1675SOL    MW4 6732   4.053   3.241   2.740
 1676SOL     OW 6733   4.051   3.512   2.684
 1676SOL    HW2 6734   4.108   3.576   2.725
 1676SOL    HW3 6735   4.086   3.500   2.596
 1676SOL    MW4 6736   4.063   3.519   2.678
 1677SOL     OW 6737   4.284   3.630   2.807
 1677SOL    HW2 6738   4.283   3.596   2.897
 1677SOL    HW3 6739   4.355   3.581   2.764
 1677SOL    MW4 6740   4.293   3.619   2.813
 1678SOL     OW 6741   4.284   3.858   2.649
 1678SOL    HW2 6742   4.285   3.772   2.691
 1678SOL    HW3 6743   4.348   3.909   2.697
 1678SOL    MW4 6744   4.293   3.853   2.661
 1679SOL     OW 6745   4.034   3.970   2.729
 1679SOL    HW2 6746   4.042   3.969   2.824
 1679SOL    HW3 6747   4.121   3.943   2.698
 1679SOL    MW4 6748   4.047   3.966   2.737
 1680SOL     OW 6749   4.058   4.231   2.664
 1680SOL    HW2 6750   4.024   4.144   2.688
 1680SOL    HW3 6751   4.057   4.231   2.568
 1680SOL    MW4 6752   4.054   4.219   2.655
 1681SOL     OW 6753   4.258   4.405   2.751
 1681SOL    HW2 6754   4.189   4.340   2.737
 1681SOL    HW3 6755   4.224   4.484   2.709
 1681SOL    MW4 6756   4.244   4.407   2.743
 1682SOL     OW 6757   0.183   4.650   3.132
 1682SOL    HW2 6758   0.167   4.653   3.226
 1682SOL    HW3 6759   0.108   4.694   3.093
 1682SOL    MW4 6760   0.171   4.656   3.139
 1683SOL     OW 6761   4.462   0.111   3.014
 1683SOL    HW2 6762   4.381   0.087   3.057
 1683SOL    HW3 6763   4.485   0.196   3.051
 1683SOL    MW4 6764   4.455   0.119   3.024
 1684SOL     OW 6765   0.007   0.365   3.115
 1684SOL    HW2 6766   0.023   0.376   3.209
 1684SOL    HW3 6767  -0.077   0.408   3.100
 1684SOL    MW4 6768  -0.002   0.372   3.125
 1685SOL     OW 6769   0.261   0.461   3.007
 1685SOL    HW2 6770   0.332   0.414   3.050
 1685SOL    HW3 6771   0.181   0.416   3.036
 1685SOL    MW4 6772   0.260   0.449   3.017
 1686SOL     OW 6773   0.207   0.736   3.131
 1686SOL    HW2 6774   0.231   0.729   3.223
 1686SOL    HW3 6775   0.213   0.647   3.097
 1686SOL    MW4 6776   0.211   0.724   3.139
 1687SOL     OW 6777   0.040   0.934   3.024
 1687SOL    HW2 6778   0.102   0.871   3.061
 1687SOL    HW3 6779   0.030   0.906   2.933
 1687SOL    MW4 6780   0.047   0.922   3.016
 1688SOL     OW 6781   0.019   1.195   3.118
 1688SOL    HW2 6782  -0.069   1.230   3.103
 1688SOL    HW3 6783   0.020   1.111   3.071
 1688SOL    MW4 6784   0.008   1.188   3.109
 1689SOL     OW 6785   0.253   1.303   2.989
 1689SOL    HW2 6786   0.182   1.273   3.045
 1689SOL    HW3 6787   0.221   1.287   2.900
 1689SOL    MW4 6788   0.239   1.297   2.985
 1690SOL     OW 6789   0.242   1.556   3.117
 1690SOL    HW2 6790   0.160   1.600   3.098
 1690SOL    HW3 6791   0.238   1.474   3.067
 1690SOL    MW4 6792   0.231   1.551   3.108
 1691SOL     OW 6793   0.005   1.676   3.047
 1691SOL    HW2 6794  -0.067   1.633   3.093
 1691SOL    HW3 6795  -0.002   1.768   3.071
 1691SOL    MW4 6796  -0.006   1.682   3.056
 1692SOL     OW 6797   4.478   1.935   3.134
 1692SOL    HW2 6798   4.412   1.989   3.090
 1692SOL    HW3 6799   4.560   1.956   3.089
 1692SOL    MW4 6800   4.480   1.945   3.122
 1693SOL     OW 6801   0.215   2.036   3.018
 1693SOL    HW2 6802   0.216   2.122   3.061
 1693SOL    HW3 6803   0.196   2.056   2.926
 1693SOL    MW4 6804   0.213   2.050   3.012
 1694SOL     OW 6805   0.208   2.291   3.109
 1694SOL    HW2 6806   0.224   2.297   3.203
 1694SOL    HW3 6807   0.287   2.328   3.069
 1694SOL    MW4 6808   0.221   2.297   3.116
 1695SOL     OW 6809   0.004   2.437   3.013
 1695SOL    HW2 6810   0.011   2.522   3.057
 1695SOL    HW3 6811   0.073   2.384   3.052
 1695SOL    MW4 6812   0.014   2.441   3.024
 1696SOL     OW 6813   0.007   2.689   3.131
 1696SOL    HW2 6814  -0.006   2.703   3.225
 1696SOL    HW3 6815   0.083   2.742   3.108
 1696SOL    MW4 6816   0.015   2.698   3.140
 1697SOL     OW 6817   0.237   2.850   3.050
 1697SOL    HW2 6818   0.310   2.791   3.070
 1697SOL    HW3 6819   0.240   2.861   2.955
 1697SOL    MW4 6820   0.247   2.843   3.040
 1698SOL     OW 6821   0.274   3.123   3.128
 1698SOL    HW2 6822   0.191   3.160   3.098
 1698SOL    HW3 6823   0.268   3.030   3.108
 1698SOL    MW4 6824   0.262   3.116   3.121
 1699SOL     OW 6825   0.018   3.229   3.044
 1699SOL    HW2 6826  -0.046   3.166   3.076
 1699SOL    HW3 6827  -0.007   3.244   2.953
 1699SOL    MW4 6828   0.006   3.223   3.036
 1700SOL     OW 6829   0.054   3.475   3.155
 1700SOL    HW2 6830  -0.030   3.521   3.144
 1700SOL    HW3 6831   0.046   3.398   3.100
 1700SOL    MW4 6832   0.042   3.471   3.146
 1701SOL     OW 6833   0.212   3.635   2.983
 1701SOL    HW2 6834   0.216   3.730   3.001
 1701SOL    HW3 6835   0.140   3.604   3.037
 1701SOL    MW4 6836   0.203   3.644   2.993
 1702SOL     OW 6837   0.193   3.901   3.089
 1702SOL    HW2 6838   0.192   3.883   3.183
 1702SOL    HW3 6839   0.267   3.960   3.076
 1702SOL    MW4 6840   0.202   3.906   3.099
 1703SOL     OW 6841   4.451   4.004   3.022
 1703SOL    HW2 6842   4.541   3.982   3.047
 1703SOL    HW3 6843   4.453   4.004   2.926
 1703SOL    MW4 6844   4.463   4.001   3.012
 1704SOL     OW 6845   0.013   4.271   3.104
 1704SOL    HW2 6846   0.021   4.272   3.199
 1704SOL    HW3 6847  -0.024   4.185   3.084
 1704SOL    MW4 6848   0.009   4.260   3.114
 1705SOL     OW 6849   0.232   4.414   3.021
 1705SOL    HW2 6850   0.163   4.355   3.052
 1705SOL    HW3 6851   0.208   4.499   3.058
 1705SOL    MW4 6852   0.220   4.417   3.030
 1706SOL     OW 6853   0.684   0.008   3.094
 1706SOL    HW2 6854   0.687  -0.088   3.094
 1706SOL    HW3 6855   0.592   0.028   3.079
 1706SOL    MW4 6856   0.672  -0.002   3.092
 1707SOL     OW 6857   0.436   0.106   3.040
 1707SOL    HW2 6858   0.437   0.190   3.087
 1707SOL    HW3 6859   0.365   0.057   3.082
 1707SOL    MW4 6860   0.427   0.111   3.052
 1708SOL     OW 6861   0.462   0.346   3.153
 1708SOL    HW2 6862   0.471   0.360   3.247
 1708SOL    HW3 6863   0.533   0.398   3.115
 1708SOL    MW4 6864   0.473   0.355   3.160
 1709SOL     OW 6865   0.666   0.482   3.034
 1709SOL    HW2 6866   0.749   0.438   3.050
 1709SOL    HW3 6867   0.679   0.571   3.067
 1709SOL    MW4 6868   0.679   0.488   3.041
 1710SOL     OW 6869   0.703   0.749   3.134
 1710SOL    HW2 6870   0.706   0.752   3.230
 1710SOL    HW3 6871   0.619   0.787   3.111
 1710SOL    MW4 6872   0.693   0.754   3.144
 1711SOL     OW 6873   0.464   0.859   3.034
 1711SOL    HW2 6874   0.386   0.825   3.077
 1711SOL    HW3 6875   0.444   0.856   2.941
 1711SOL    MW4 6876   0.451   0.854   3.028
 1712SOL     OW 6877   0.432   1.138   3.123
 1712SOL    HW2 6878   0.435   1.045   3.100
 1712SOL    HW3 6879   0.356   1.172   3.075
 1712SOL    MW4 6880   0.422   1.130   3.114
 1713SOL     OW 6881   0.638   1.262   2.970
 1713SOL    HW2 6882   0.717   1.216   2.999
 1713SOL    HW3 6883   0.569   1.232   3.029
 1713SOL    MW4 6884   0.639   1.252   2.981
 1714SOL     OW 6885   0.662   1.526   3.068
 1714SOL    HW2 6886   0.669   1.514   3.163
 1714SOL    HW3 6887   0.644   1.439   3.034
 1714SOL    MW4 6888   0.660   1.513   3.076
 1715SOL     OW 6889   0.455   1.667   2.987
 1715SOL    HW2 6890   0.527   1.613   3.020
 1715SOL    HW3 6891   0.376   1.628   3.024
 1715SOL    MW4 6892   0.454   1.655   2.996
 1716SOL     OW 6893   0.433   1.911   3.122
 1716SOL    HW2 6894   0.430   1.822   3.088
 1716SOL    HW3 6895   0.356   1.954   3.085
 1716SOL    MW4 6896   0.423   1.905   3.113
 1717SOL     OW 6897   0.645   2.020   2.964
 1717SOL    HW2 6898   0.725   1.975   2.991
 1717SOL    HW3 6899   0.577   1.985   3.020
 1717SOL    MW4 6900   0.647   2.010   2.975
 1718SOL     OW 6901   0.715   2.287   3.052
 1718SOL    HW2 6902   0.714   2.288   3.148
 1718SOL    HW3 6903   0.729   2.194   3.030
 1718SOL    MW4 6904   0.717   2.275   3.062
 1719SOL     OW 6905   0.431   2.421   3.011
 1719SOL    HW2 6906   0.513   2.375   3.027
 1719SOL    HW3 6907   0.419   2.415   2.916
 1719SOL    MW4 6908   0.441   2.414   3.001
 1720SOL     OW 6909   0.455   2.671   3.109
 1720SOL    HW2 6910   0.536   2.711   3.076
 1720SOL    HW3 6911   0.451   2.586   3.065
 1720SOL    MW4 6912   0.465   2.665   3.098
 1721SOL     OW 6913   0.665   2.821   3.004
 1721SOL    HW2 6914   0.749   2.798   3.044
 1721SOL    HW3 6915   0.651   2.912   3.030
 1721SOL    MW4 6916   0.674   2.830   3.013
 1722SOL     OW 6917   0.675   3.090   3.108
 1722SOL    HW2 6918   0.673   3.098   3.203
 1722SOL    HW3 6919   0.607   3.150   3.077
 1722SOL    MW4 6920   0.666   3.099   3.116
 1723SOL     OW 6921   0.473   3.260   3.004
 1723SOL    HW2 6922   0.484   3.344   3.049
 1723SOL    HW3 6923   0.401   3.217   3.049
 1723SOL    MW4 6924   0.465   3.265   3.016
 1724SOL     OW 6925   0.459   3.526   3.119
 1724SOL    HW2 6926   0.450   3.493   3.209
 1724SOL    HW3 6927   0.370   3.549   3.093
 1724SOL    MW4 6928   0.446   3.525   3.128
 1725SOL     OW 6929   0.673   3.617   2.986
 1725SOL    HW2 6930   0.737   3.593   3.053
 1725SOL    HW3 6931   0.589   3.587   3.021
 1725SOL    MW4 6932   0.670   3.610   3.000
 1726SOL     OW 6933   0.676   3.913   3.072
 1726SOL    HW2 6934   0.673   3.899   3.166
 1726SOL    HW3 6935   0.678   3.825   3.034
 1726SOL    MW4 6936   0.676   3.899   3.079
 1727SOL     OW 6937   0.425   4.030   3.014
 1727SOL    HW2 6938   0.503   3.980   3.037
 1727SOL    HW3 6939   0.415   4.017   2.920
 1727SOL    MW4 6940   0.434   4.022   3.005
 1728SOL     OW 6941   0.448   4.282   3.139
 1728SOL    HW2 6942   0.432   4.200   3.093
 1728SOL    HW3 6943   0.389   4.345   3.098
 1728SOL    MW4 6944   0.438   4.280   3.128
 1729SOL     OW 6945   0.680   4.395   3.020
 1729SOL    HW2 6946   0.608   4.359   3.072
 1729SOL    HW3 6947   0.662   4.369   2.930
 1729SOL    MW4 6948   0.668   4.387   3.015
 1730SOL     OW 6949   1.120   4.659   3.115
 1730SOL    HW2 6950   1.203   4.690   3.080
 1730SOL    HW3 6951   1.053   4.704   3.064
 1730SOL    MW4 6952   1.122   4.669   3.104
 1731SOL     OW 6953   0.916   0.088   2.969
 1731SOL    HW2 6954   0.929   0.181   2.991
 1731SOL    HW3 6955   0.845   0.060   3.027
 1731SOL    MW4 6956   0.908   0.097   2.979
 1732SOL     OW 6957   0.923   0.356   3.044
 1732SOL    HW2 6958   0.910   0.346   3.139
 1732SOL    HW3 6959   0.998   0.414   3.037
 1732SOL    MW4 6960   0.931   0.362   3.056
 1733SOL     OW 6961   1.128   0.527   3.036
 1733SOL    HW2 6962   1.183   0.464   3.083
 1733SOL    HW3 6963   1.143   0.507   2.943
 1733SOL    MW4 6964   1.137   0.516   3.030
 1734SOL     OW 6965   1.147   0.789   3.133
 1734SOL    HW2 6966   1.132   0.780   3.227
 1734SOL    HW3 6967   1.132   0.701   3.098
 1734SOL    MW4 6968   1.143   0.776   3.140
 1735SOL     OW 6969   0.928   0.894   2.992
 1735SOL    HW2 6970   1.007   0.861   3.034
 1735SOL    HW3 6971   0.857   0.866   3.051
 1735SOL    MW4 6972   0.929   0.886   3.005
 1736SOL     OW 6973   0.887   1.160   3.088
 1736SOL    HW2 6974   0.967   1.209   3.073
 1736SOL    HW3 6975   0.909   1.070   3.065
 1736SOL    MW4 6976   0.900   1.154   3.083
 1737SOL     OW 6977   1.122   1.273   3.016
 1737SOL    HW2 6978   1.206   1.238   3.045
 1737SOL    HW3 6979   1.120   1.256   2.922
 1737SOL    MW4 6980   1.133   1.266   3.008
 1738SOL     OW 6981   1.107   1.549   3.108
 1738SOL    HW2 6982   1.186   1.587   3.070
 1738SOL    HW3 6983   1.105   1.459   3.077
 1738SOL    MW4 6984   1.117   1.542   3.099
 1739SOL     OW 6985   0.874   1.669   2.992
 1739SOL    HW2 6986   0.942   1.617   3.035
 1739SOL    HW3 6987   0.793   1.621   3.009
 1739SOL    MW4 6988   0.872   1.656   3.000
 1740SOL     OW 6989   0.888   1.921   3.062
 1740SOL    HW2 6990   0.895   1.931   3.157
 1740SOL    HW3 6991   0.885   1.826   3.048
 1740SOL    MW4 6992   0.889   1.910   3.072
 1741SOL     OW 6993   1.121   2.048   2.993
 1741SOL    HW2 6994   1.034   2.008   3.000
 1741SOL    HW3 6995   1.140   2.048   2.900
 1741SOL    MW4 6996   1.112   2.043   2.982
 1742SOL     OW 6997   1.127   2.304   3.102
 1742SOL    HW2 6998   1.060   2.352   3.053
 1742SOL    HW3 6999   1.131   2.219   3.059
 1742SOL    MW4 7000   1.119   2.299   3.090
 1743SOL     OW 7001   0.916   2.475   3.007
 1743SOL    HW2 7002   0.845   2.421   3.043
 1743SOL    HW3 7003   0.918   2.453   2.913
 1743SOL    MW4 7004   0.907   2.465   2.999
 1744SOL     OW 7005   0.901   2.729   3.127
 1744SOL    HW2 7006   0.897   2.728   3.222
 1744SOL    HW3 7007   0.921   2.638   3.102
 1744SOL    MW4 7008   0.903   2.717   3.136
 1745SOL     OW 7009   1.143   2.808   3.037
 1745SOL    HW2 7010   1.150   2.904   3.034
 1745SOL    HW3 7011   1.055   2.792   3.070
 1745SOL    MW4 7012   1.132   2.819   3.041
 1746SOL     OW 7013   1.126   3.080   3.088
 1746SOL    HW2 7014   1.198   3.136   3.059
 1746SOL    HW3 7015   1.056   3.141   3.112
 1746SOL    MW4 7016   1.126   3.095   3.088
 1747SOL     OW 7017   0.895   3.249   3.063
 1747SOL    HW2 7018   0.823   3.188   3.080
 1747SOL    HW3 7019   0.903   3.250   2.968
 1747SOL    MW4 7020   0.887   3.241   3.053
 1748SOL     OW 7021   0.867   3.513   3.155
 1748SOL    HW2 7022   0.935   3.562   3.108
 1748SOL    HW3 7023   0.873   3.424   3.120
 1748SOL    MW4 7024   0.876   3.508   3.144
 1749SOL     OW 7025   1.086   3.644   3.033
 1749SOL    HW2 7026   1.160   3.586   3.050
 1749SOL    HW3 7027   1.116   3.731   3.060
 1749SOL    MW4 7028   1.100   3.648   3.039
 1750SOL     OW 7029   1.117   3.889   3.138
 1750SOL    HW2 7030   1.086   3.861   3.224
 1750SOL    HW3 7031   1.039   3.922   3.093
 1750SOL    MW4 7032   1.103   3.890   3.144
 1751SOL     OW 7033   0.923   4.009   3.002
 1751SOL    HW2 7034   0.842   3.971   3.035
 1751SOL    HW3 7035   0.912   4.010   2.907
 1751SOL    MW4 7036   0.911   4.004   2.994
 1752SOL     OW 7037   0.913   4.261   3.130
 1752SOL    HW2 7038   0.929   4.174   3.094
 1752SOL    HW3 7039   0.843   4.298   3.076
 1752SOL    MW4 7040   0.906   4.255   3.118
 1753SOL     OW 7041   1.124   4.396   2.997
 1753SOL    HW2 7042   1.063   4.344   3.049
 1753SOL    HW3 7043   1.120   4.483   3.036
 1753SOL    MW4 7044   1.115   4.401   3.009
 1754SOL     OW 7045   1.604   4.654   3.120
 1754SOL    HW2 7046   1.594   4.626   3.211
 1754SOL    HW3 7047   1.527   4.708   3.103
 1754SOL    MW4 7048   1.592   4.658   3.130
 1755SOL     OW 7049   1.366   0.106   3.036
 1755SOL    HW2 7050   1.355   0.194   3.070
 1755SOL    HW3 7051   1.345   0.113   2.943
 1755SOL    MW4 7052   1.362   0.118   3.028
 1756SOL     OW 7053   1.310   0.355   3.151
 1756SOL    HW2 7054   1.311   0.364   3.247
 1756SOL    HW3 7055   1.394   0.391   3.123
 1756SOL    MW4 7056   1.321   0.361   3.160
 1757SOL     OW 7057   1.534   0.486   3.052
 1757SOL    HW2 7058   1.547   0.577   3.079
 1757SOL    HW3 7059   1.560   0.485   2.960
 1757SOL    MW4 7060   1.539   0.498   3.043
 1758SOL     OW 7061   1.554   0.746   3.151
 1758SOL    HW2 7062   1.541   0.759   3.245
 1758SOL    HW3 7063   1.484   0.797   3.109
 1758SOL    MW4 7064   1.543   0.755   3.158
 1759SOL     OW 7065   1.369   0.911   3.012
 1759SOL    HW2 7066   1.376   0.987   3.070
 1759SOL    HW3 7067   1.293   0.863   3.045
 1759SOL    MW4 7068   1.360   0.915   3.024
 1760SOL     OW 7069   1.356   1.171   3.116
 1760SOL    HW2 7070   1.361   1.155   3.210
 1760SOL    HW3 7071   1.439   1.214   3.094
 1760SOL    MW4 7072   1.367   1.175   3.126
 1761SOL     OW 7073   1.568   1.313   3.020
 1761SOL    HW2 7074   1.654   1.274   3.035
 1761SOL    HW3 7075   1.562   1.384   3.084
 1761SOL    MW4 7076   1.579   1.317   3.030
 1762SOL     OW 7077   1.531   1.547   3.182
 1762SOL    HW2 7078   1.610   1.585   3.142
 1762SOL    HW3 7079   1.459   1.581   3.129
 1762SOL    MW4 7080   1.532   1.557   3.170
 1763SOL     OW 7081   1.346   1.660   3.006
 1763SOL    HW2 7082   1.345   1.753   3.029
 1763SOL    HW3 7083   1.360   1.658   2.912
 1763SOL    MW4 7084   1.347   1.672   2.997
 1764SOL     OW 7085   1.340   1.925   3.121
 1764SOL    HW2 7086   1.351   1.935   3.216
 1764SOL    HW3 7087   1.259   1.973   3.101
 1764SOL    MW4 7088   1.331   1.933   3.131
 1765SOL     OW 7089   1.558   2.016   2.972
 1765SOL    HW2 7090   1.474   1.997   3.015
 1765SOL    HW3 7091   1.537   2.012   2.879
 1765SOL    MW4 7092   1.544   2.013   2.965
 1766SOL     OW 7093   1.561   2.247   3.141
 1766SOL    HW2 7094   1.491   2.287   3.090
 1766SOL    HW3 7095   1.577   2.163   3.098
 1766SOL    MW4 7096   1.554   2.241   3.128
 1767SOL     OW 7097   1.371   2.404   3.023
 1767SOL    HW2 7098   1.295   2.353   3.050
 1767SOL    HW3 7099   1.356   2.423   2.930
 1767SOL    MW4 7100   1.359   2.400   3.014
 1768SOL     OW 7101   1.376   2.692   3.130
 1768SOL    HW2 7102   1.357   2.601   3.108
 1768SOL    HW3 7103   1.304   2.741   3.090
 1768SOL    MW4 7104   1.364   2.686   3.122
 1769SOL     OW 7105   1.610   2.787   3.014
 1769SOL    HW2 7106   1.678   2.719   3.016
 1769SOL    HW3 7107   1.547   2.759   3.080
 1769SOL    MW4 7108   1.611   2.774   3.023
 1770SOL     OW 7109   1.608   3.047   3.113
 1770SOL    HW2 7110   1.590   3.051   3.207
 1770SOL    HW3 7111   1.608   2.953   3.093
 1770SOL    MW4 7112   1.606   3.035   3.123
 1771SOL     OW 7113   1.377   3.195   3.018
 1771SOL    HW2 7114   1.447   3.137   3.047
 1771SOL    HW3 7115   1.394   3.208   2.924
 1771SOL    MW4 7116   1.388   3.189   3.009
 1772SOL     OW 7117   1.306   3.482   3.088
 1772SOL    HW2 7118   1.331   3.484   3.181
 1772SOL    HW3 7119   1.309   3.390   3.064
 1772SOL    MW4 7120   1.310   3.470   3.097
 1773SOL     OW 7121   1.543   3.644   3.030
 1773SOL    HW2 7122   1.461   3.594   3.035
 1773SOL    HW3 7123   1.564   3.646   2.937
 1773SOL    MW4 7124   1.535   3.637   3.019
 1774SOL     OW 7125   1.550   3.908   3.101
 1774SOL    HW2 7126   1.622   3.949   3.053
 1774SOL    HW3 7127   1.549   3.817   3.070
 1774SOL    MW4 7128   1.559   3.902   3.090
 1775SOL     OW 7129   1.304   4.029   3.010
 1775SOL    HW2 7130   1.386   3.994   3.044
 1775SOL    HW3 7131   1.236   3.979   3.056
 1775SOL    MW4 7132   1.306   4.018   3.020
 1776SOL     OW 7133   1.348   4.297   3.113
 1776SOL    HW2 7134   1.339   4.209   3.077
 1776SOL    HW3 7135   1.273   4.345   3.077
 1776SOL    MW4 7136   1.337   4.292   3.103
 1777SOL     OW 7137   1.557   4.427   3.004
 1777SOL    HW2 7138   1.484   4.379   3.043
 1777SOL    HW3 7139   1.552   4.514   3.045
 1777SOL    MW4 7140   1.547   4.432   3.015
 1778SOL     OW 7141   1.998   0.011   3.062
 1778SOL    HW2 7142   2.004   0.039   3.153
 1778SOL    HW3 7143   1.929   0.065   3.024
 1778SOL    MW4 7144   1.989   0.021   3.069
 1779SOL     OW 7145   1.785   0.165   3.009
 1779SOL    HW2 7146   1.723   0.107   3.054
 1779SOL    HW3 7147   1.766   0.152   2.916
 1779SOL    MW4 7148   1.774   0.156   3.003
 1780SOL     OW 7149   1.803   0.409   3.125
 1780SOL    HW2 7150   1.814   0.326   3.080
 1780SOL    HW3 7151   1.716   0.440   3.097
 1780SOL    MW4 7152   1.793   0.403   3.116
 1781SOL     OW 7153   2.036   0.544   3.068
 1781SOL    HW2 7154   1.954   0.496   3.079
 1781SOL    HW3 7155   2.050   0.543   2.973
 1781SOL    MW4 7156   2.027   0.537   3.057
 1782SOL     OW 7157   2.004   0.822   3.143
 1782SOL    HW2 7158   1.932   0.860   3.092
 1782SOL    HW3 7159   2.011   0.733   3.111
 1782SOL    MW4 7160   1.995   0.816   3.132
 1783SOL     OW 7161   1.762   0.905   3.053
 1783SOL    HW2 7162   1.689   0.862   3.097
 1783SOL    HW3 7163   1.744   0.894   2.959
 1783SOL    MW4 7164   1.750   0.898   3.046
 1784SOL     OW 7165   1.811   1.186   3.103
 1784SOL    HW2 7166   1.811   1.199   3.198
 1784SOL    HW3 7167   1.803   1.092   3.092
 1784SOL    MW4 7168   1.810   1.176   3.114
 1785SOL     OW 7169   2.065   1.233   2.995
 1785SOL    HW2 7170   2.135   1.201   3.052
 1785SOL    HW3 7171   1.984   1.212   3.041
 1785SOL    MW4 7172   2.063   1.226   3.008
 1786SOL     OW 7173   2.037   1.511   3.077
 1786SOL    HW2 7174   2.023   1.514   3.171
 1786SOL    HW3 7175   2.038   1.418   3.055
 1786SOL    MW4 7176   2.035   1.499   3.086
 1787SOL     OW 7177   1.769   1.607   3.062
 1787SOL    HW2 7178   1.778   1.697   3.092
 1787SOL    HW3 7179   1.852   1.566   3.085
 1787SOL    MW4 7180   1.781   1.613   3.069
 1788SOL     OW 7181   1.798   1.898   3.079
 1788SOL    HW2 7182   1.864   1.958   3.043
 1788SOL    HW3 7183   1.717   1.924   3.036
 1788SOL    MW4 7184   1.796   1.909   3.068
 1789SOL     OW 7185   2.010   2.056   2.960
 1789SOL    HW2 7186   2.079   2.002   3.000
 1789SOL    HW3 7187   2.029   2.145   2.990
 1789SOL    MW4 7188   2.021   2.060   2.970
 1790SOL     OW 7189   2.016   2.313   3.096
 1790SOL    HW2 7190   2.079   2.377   3.063
 1790SOL    HW3 7191   1.931   2.350   3.073
 1790SOL    MW4 7192   2.013   2.326   3.089
 1791SOL     OW 7193   1.764   2.378   3.004
 1791SOL    HW2 7194   1.769   2.472   3.020
 1791SOL    HW3 7195   1.689   2.348   3.056
 1791SOL    MW4 7196   1.755   2.386   3.013
 1792SOL     OW 7197   1.832   2.636   3.080
 1792SOL    HW2 7198   1.821   2.651   3.174
 1792SOL    HW3 7199   1.889   2.707   3.051
 1792SOL    MW4 7200   1.838   2.647   3.089
 1793SOL     OW 7201   2.026   2.832   3.018
 1793SOL    HW2 7202   2.027   2.919   3.056
 1793SOL    HW3 7203   2.038   2.846   2.924
 1793SOL    MW4 7204   2.028   2.845   3.011
 1794SOL     OW 7205   2.015   3.097   3.115
 1794SOL    HW2 7206   2.002   3.108   3.209
 1794SOL    HW3 7207   1.936   3.133   3.075
 1794SOL    MW4 7208   2.003   3.103   3.122
 1795SOL     OW 7209   1.769   3.239   3.020
 1795SOL    HW2 7210   1.709   3.175   3.058
 1795SOL    HW3 7211   1.749   3.238   2.927
 1795SOL    MW4 7212   1.758   3.231   3.013
 1796SOL     OW 7213   1.745   3.490   3.146
 1796SOL    HW2 7214   1.743   3.408   3.096
 1796SOL    HW3 7215   1.676   3.543   3.107
 1796SOL    MW4 7216   1.736   3.486   3.134
 1797SOL     OW 7217   1.995   3.628   3.027
 1797SOL    HW2 7218   1.992   3.713   3.069
 1797SOL    HW3 7219   1.922   3.579   3.066
 1797SOL    MW4 7220   1.985   3.633   3.037
 1798SOL     OW 7221   2.002   3.870   3.137
 1798SOL    HW2 7222   2.025   3.874   3.230
 1798SOL    HW3 7223   1.919   3.918   3.131
 1798SOL    MW4 7224   1.994   3.877   3.149
 1799SOL     OW 7225   1.800   4.044   3.017
 1799SOL    HW2 7226   1.781   4.134   3.044
 1799SOL    HW3 7227   1.802   4.047   2.921
 1799SOL    MW4 7228   1.798   4.056   3.008
 1800SOL     OW 7229   1.781   4.309   3.121
 1800SOL    HW2 7230   1.856   4.362   3.094
 1800SOL    HW3 7231   1.705   4.350   3.080
 1800SOL    MW4 7232   1.781   4.321   3.112
 1801SOL     OW 7233   2.029   4.409   3.042
 1801SOL    HW2 7234   2.022   4.504   3.042
 1801SOL    HW3 7235   1.991   4.382   2.958
 1801SOL    MW4 7236   2.023   4.418   3.031
 1802SOL     OW 7237   2.496   0.013   3.146
 1802SOL    HW2 7238   2.491  -0.079   3.122
 1802SOL    HW3 7239   2.419   0.053   3.106
 1802SOL    MW4 7240   2.485   0.006   3.137
 1803SOL     OW 7241   2.268   0.107   3.030
 1803SOL    HW2 7242   2.243   0.195   3.057
 1803SOL    HW3 7243   2.188   0.055   3.041
 1803SOL    MW4 7244   2.254   0.112   3.035
 1804SOL     OW 7245   2.224   0.367   3.130
 1804SOL    HW2 7246   2.207   0.361   3.224
 1804SOL    HW3 7247   2.165   0.435   3.099
 1804SOL    MW4 7248   2.214   0.375   3.138
 1805SOL     OW 7249   2.474   0.489   3.051
 1805SOL    HW2 7250   2.400   0.443   3.090
 1805SOL    HW3 7251   2.466   0.473   2.957
 1805SOL    MW4 7252   2.463   0.481   3.043
 1806SOL     OW 7253   2.484   0.765   3.100
 1806SOL    HW2 7254   2.573   0.795   3.087
 1806SOL    HW3 7255   2.485   0.674   3.069
 1806SOL    MW4 7256   2.496   0.757   3.094
 1807SOL     OW 7257   2.258   0.895   3.019
 1807SOL    HW2 7258   2.337   0.847   3.043
 1807SOL    HW3 7259   2.189   0.857   3.075
 1807SOL    MW4 7260   2.259   0.883   3.029
 1808SOL     OW 7261   2.296   1.157   3.142
 1808SOL    HW2 7262   2.291   1.136   3.236
 1808SOL    HW3 7263   2.289   1.072   3.098
 1808SOL    MW4 7264   2.294   1.143   3.149
 1809SOL     OW 7265   2.496   1.293   3.012
 1809SOL    HW2 7266   2.424   1.235   3.034
 1809SOL    HW3 7267   2.495   1.297   2.917
 1809SOL    MW4 7268   2.487   1.286   3.002
 1810SOL     OW 7269   2.474   1.567   3.113
 1810SOL    HW2 7270   2.385   1.601   3.106
 1810SOL    HW3 7271   2.469   1.479   3.075
 1810SOL    MW4 7272   2.461   1.559   3.107
 1811SOL     OW 7273   2.229   1.692   3.036
 1811SOL    HW2 7274   2.157   1.630   3.054
 1811SOL    HW3 7275   2.237   1.691   2.941
 1811SOL    MW4 7276   2.220   1.683   3.026
 1812SOL     OW 7277   2.208   1.935   3.147
 1812SOL    HW2 7278   2.293   1.970   3.121
 1812SOL    HW3 7279   2.203   1.850   3.102
 1812SOL    MW4 7280   2.219   1.928   3.138
 1813SOL     OW 7281   2.468   2.028   3.060
 1813SOL    HW2 7282   2.542   1.979   3.095
 1813SOL    HW3 7283   2.458   1.997   2.970
 1813SOL    MW4 7284   2.477   2.018   3.053
 1814SOL     OW 7285   2.473   2.288   3.135
 1814SOL    HW2 7286   2.494   2.270   3.227
 1814SOL    HW3 7287   2.478   2.203   3.092
 1814SOL    MW4 7288   2.476   2.274   3.142
 1815SOL     OW 7289   2.259   2.450   3.025
 1815SOL    HW2 7290   2.268   2.532   3.073
 1815SOL    HW3 7291   2.329   2.394   3.058
 1815SOL    MW4 7292   2.270   2.454   3.035
 1816SOL     OW 7293   2.271   2.711   3.151
 1816SOL    HW2 7294   2.337   2.770   3.115
 1816SOL    HW3 7295   2.190   2.733   3.104
 1816SOL    MW4 7296   2.269   2.722   3.140
 1817SOL     OW 7297   2.478   2.880   3.044
 1817SOL    HW2 7298   2.489   2.973   3.061
 1817SOL    HW3 7299   2.456   2.875   2.951
 1817SOL    MW4 7300   2.476   2.891   3.034
 1818SOL     OW 7301   2.461   3.139   3.128
 1818SOL    HW2 7302   2.533   3.176   3.078
 1818SOL    HW3 7303   2.382   3.165   3.080
 1818SOL    MW4 7304   2.460   3.147   3.115
 1819SOL     OW 7305   2.232   3.221   3.012
 1819SOL    HW2 7306   2.226   3.310   3.046
 1819SOL    HW3 7307   2.154   3.176   3.046
 1819SOL    MW4 7308   2.221   3.227   3.021
 1820SOL     OW 7309   2.249   3.479   3.102
 1820SOL    HW2 7310   2.326   3.522   3.066
 1820SOL    HW3 7311   2.175   3.530   3.067
 1820SOL    MW4 7312   2.249   3.492   3.092
 1821SOL     OW 7313   2.477   3.602   2.986
 1821SOL    HW2 7314   2.544   3.562   3.041
 1821SOL    HW3 7315   2.468   3.691   3.019
 1821SOL    MW4 7316   2.484   3.608   2.998
 1822SOL     OW 7317   2.431   3.863   3.067
 1822SOL    HW2 7318   2.419   3.853   3.161
 1822SOL    HW3 7319   2.511   3.914   3.058
 1822SOL    MW4 7320   2.440   3.868   3.078
 1823SOL     OW 7321   2.202   3.999   2.992
 1823SOL    HW2 7322   2.277   3.947   3.019
 1823SOL    HW3 7323   2.126   3.949   3.021
 1823SOL    MW4 7324   2.202   3.986   3.000
 1824SOL     OW 7325   2.260   4.284   3.125
 1824SOL    HW2 7326   2.251   4.191   3.104
 1824SOL    HW3 7327   2.178   4.324   3.098
 1824SOL    MW4 7328   2.248   4.277   3.118
 1825SOL     OW 7329   2.498   4.421   3.063
 1825SOL    HW2 7330   2.426   4.363   3.089
 1825SOL    HW3 7331   2.489   4.430   2.969
 1825SOL    MW4 7332   2.487   4.415   3.054
 1826SOL     OW 7333   2.954   4.642   3.113
 1826SOL    HW2 7334   3.029   4.694   3.082
 1826SOL    HW3 7335   2.966   4.557   3.072
 1826SOL    MW4 7336   2.966   4.638   3.103
 1827SOL     OW 7337   2.716   0.122   3.033
 1827SOL    HW2 7338   2.794   0.070   3.056
 1827SOL    HW3 7339   2.644   0.079   3.079
 1827SOL    MW4 7340   2.717   0.109   3.042
 1828SOL     OW 7341   2.714   0.374   3.138
 1828SOL    HW2 7342   2.721   0.285   3.104
 1828SOL    HW3 7343   2.631   0.407   3.102
 1828SOL    MW4 7344   2.704   0.366   3.129
 1829SOL     OW 7345   2.937   0.484   3.038
 1829SOL    HW2 7346   2.852   0.444   3.054
 1829SOL    HW3 7347   2.944   0.486   2.942
 1829SOL    MW4 7348   2.927   0.479   3.027
 1830SOL     OW 7349   2.959   0.747   3.138
 1830SOL    HW2 7350   2.924   0.743   3.227
 1830SOL    HW3 7351   2.942   0.660   3.101
 1830SOL    MW4 7352   2.952   0.735   3.145
 1831SOL     OW 7353   2.724   0.880   3.063
 1831SOL    HW2 7354   2.724   0.971   3.092
 1831SOL    HW3 7355   2.796   0.840   3.111
 1831SOL    MW4 7356   2.733   0.887   3.073
 1832SOL     OW 7357   2.713   1.162   3.119
 1832SOL    HW2 7358   2.787   1.209   3.082
 1832SOL    HW3 7359   2.636   1.198   3.074
 1832SOL    MW4 7360   2.712   1.173   3.108
 1833SOL     OW 7361   2.915   1.292   3.019
 1833SOL    HW2 7362   2.990   1.238   3.042
 1833SOL    HW3 7363   2.922   1.368   3.076
 1833SOL    MW4 7364   2.925   1.295   3.030
 1834SOL     OW 7365   2.917   1.540   3.144
 1834SOL    HW2 7366   2.943   1.529   3.235
 1834SOL    HW3 7367   2.988   1.592   3.105
 1834SOL    MW4 7368   2.930   1.545   3.151
 1835SOL     OW 7369   2.715   1.645   3.017
 1835SOL    HW2 7370   2.782   1.594   3.063
 1835SOL    HW3 7371   2.632   1.607   3.045
 1835SOL    MW4 7372   2.713   1.633   3.026
 1836SOL     OW 7373   2.703   1.887   3.157
 1836SOL    HW2 7374   2.789   1.922   3.131
 1836SOL    HW3 7375   2.698   1.802   3.113
 1836SOL    MW4 7376   2.714   1.880   3.148
 1837SOL     OW 7377   2.942   2.020   3.039
 1837SOL    HW2 7378   2.937   2.111   3.066
 1837SOL    HW3 7379   2.932   2.022   2.944
 1837SOL    MW4 7380   2.940   2.032   3.030
 1838SOL     OW 7381   2.944   2.298   3.117
 1838SOL    HW2 7382   3.017   2.344   3.075
 1838SOL    HW3 7383   2.866   2.346   3.090
 1838SOL    MW4 7384   2.944   2.310   3.108
 1839SOL     OW 7385   2.703   2.429   3.048
 1839SOL    HW2 7386   2.701   2.517   3.087
 1839SOL    HW3 7387   2.630   2.383   3.090
 1839SOL    MW4 7388   2.693   2.434   3.059
 1840SOL     OW 7389   2.699   2.727   3.132
 1840SOL    HW2 7390   2.702   2.737   3.227
 1840SOL    HW3 7391   2.627   2.784   3.104
 1840SOL    MW4 7392   2.690   2.736   3.141
 1841SOL     OW 7393   2.918   2.874   3.036
 1841SOL    HW2 7394   2.993   2.831   3.077
 1841SOL    HW3 7395   2.842   2.824   3.067
 1841SOL    MW4 7396   2.918   2.862   3.046
 1842SOL     OW 7397   2.920   3.126   3.150
 1842SOL    HW2 7398   2.838   3.156   3.109
 1842SOL    HW3 7399   2.924   3.033   3.130
 1842SOL    MW4 7400   2.909   3.118   3.142
 1843SOL     OW 7401   2.695   3.223   3.016
 1843SOL    HW2 7402   2.708   3.310   3.054
 1843SOL    HW3 7403   2.702   3.237   2.922
 1843SOL    MW4 7404   2.698   3.236   3.009
 1844SOL     OW 7405   2.693   3.477   3.121
 1844SOL    HW2 7406   2.691   3.487   3.216
 1844SOL    HW3 7407   2.765   3.534   3.092
 1844SOL    MW4 7408   2.702   3.486   3.129
 1845SOL     OW 7409   2.917   3.592   2.976
 1845SOL    HW2 7410   2.998   3.550   3.004
 1845SOL    HW3 7411   2.921   3.679   3.014
 1845SOL    MW4 7412   2.928   3.598   2.985
 1846SOL     OW 7413   2.887   3.859   3.074
 1846SOL    HW2 7414   2.889   3.855   3.170
 1846SOL    HW3 7415   2.808   3.908   3.054
 1846SOL    MW4 7416   2.877   3.865   3.084
 1847SOL     OW 7417   2.663   4.000   3.013
 1847SOL    HW2 7418   2.683   4.093   3.025
 1847SOL    HW3 7419   2.664   3.988   2.918
 1847SOL    MW4 7420   2.665   4.011   3.002
 1848SOL     OW 7421   2.716   4.257   3.103
 1848SOL    HW2 7422   2.730   4.277   3.195
 1848SOL    HW3 7423   2.652   4.322   3.073
 1848SOL    MW4 7424   2.710   4.268   3.111
 1849SOL     OW 7425   2.955   4.379   3.004
 1849SOL    HW2 7426   3.022   4.320   3.039
 1849SOL    HW3 7427   2.873   4.347   3.042
 1849SOL    MW4 7428   2.953   4.367   3.014
 1850SOL     OW 7429   3.384   4.643   3.127
 1850SOL    HW2 7430   3.458   4.689   3.089
 1850SOL    HW3 7431   3.382   4.558   3.081
 1850SOL    MW4 7432   3.393   4.638   3.116
 1851SOL     OW 7433   3.173   0.125   3.024
 1851SOL    HW2 7434   3.170   0.205   3.076
 1851SOL    HW3 7435   3.258   0.086   3.046
 1851SOL    MW4 7436   3.184   0.130   3.034
 1852SOL     OW 7437   3.154   0.358   3.152
 1852SOL    HW2 7438   3.223   0.414   3.117
 1852SOL    HW3 7439   3.073   0.398   3.120
 1852SOL    MW4 7440   3.152   0.371   3.143
 1853SOL     OW 7441   3.369   0.501   3.060
 1853SOL    HW2 7442   3.449   0.456   3.087
 1853SOL    HW3 7443   3.357   0.475   2.969
 1853SOL    MW4 7444   3.378   0.492   3.052
 1854SOL     OW 7445   3.398   0.757   3.133
 1854SOL    HW2 7446   3.405   0.768   3.228
 1854SOL    HW3 7447   3.399   0.662   3.120
 1854SOL    MW4 7448   3.399   0.746   3.144
 1855SOL     OW 7449   3.179   0.888   3.015
 1855SOL    HW2 7450   3.263   0.859   3.050
 1855SOL    HW3 7451   3.114   0.840   3.066
 1855SOL    MW4 7452   3.181   0.878   3.027
 1856SOL     OW 7453   3.137   1.139   3.126
 1856SOL    HW2 7454   3.213   1.190   3.098
 1856SOL    HW3 7455   3.150   1.052   3.087
 1856SOL    MW4 7456   3.148   1.134   3.117
 1857SOL     OW 7457   3.374   1.280   3.026
 1857SOL    HW2 7458   3.455   1.242   3.060
 1857SOL    HW3 7459   3.366   1.364   3.069
 1857SOL    MW4 7460   3.383   1.286   3.036
 1858SOL     OW 7461   3.336   1.533   3.132
 1858SOL    HW2 7462   3.342   1.554   3.225
 1858SOL    HW3 7463   3.415   1.572   3.094
 1858SOL    MW4 7464   3.348   1.541   3.139
 1859SOL     OW 7465   3.140   1.670   3.006
 1859SOL    HW2 7466   3.216   1.622   3.042
 1859SOL    HW3 7467   3.148   1.659   2.912
 1859SOL    MW4 7468   3.151   1.662   2.999
 1860SOL     OW 7469   3.151   1.905   3.162
 1860SOL    HW2 7470   3.156   1.825   3.111
 1860SOL    HW3 7471   3.083   1.957   3.120
 1860SOL    MW4 7472   3.143   1.902   3.150
 1861SOL     OW 7473   3.360   2.032   3.040
 1861SOL    HW2 7474   3.434   1.985   3.080
 1861SOL    HW3 7475   3.282   1.988   3.075
 1861SOL    MW4 7476   3.359   2.020   3.050
 1862SOL     OW 7477   3.386   2.302   3.100
 1862SOL    HW2 7478   3.379   2.324   3.193
 1862SOL    HW3 7479   3.367   2.208   3.096
 1862SOL    MW4 7480   3.383   2.292   3.112
 1863SOL     OW 7481   3.158   2.447   3.016
 1863SOL    HW2 7482   3.235   2.398   3.041
 1863SOL    HW3 7483   3.161   2.450   2.920
 1863SOL    MW4 7484   3.168   2.441   3.006
 1864SOL     OW 7485   3.119   2.701   3.131
 1864SOL    HW2 7486   3.142   2.692   3.224
 1864SOL    HW3 7487   3.112   2.611   3.099
 1864SOL    MW4 7488   3.121   2.688   3.139
 1865SOL     OW 7489   3.338   2.803   3.022
 1865SOL    HW2 7490   3.348   2.894   3.050
 1865SOL    HW3 7491   3.264   2.770   3.072
 1865SOL    MW4 7492   3.330   2.810   3.032
 1866SOL     OW 7493   3.369   3.066   3.095
 1866SOL    HW2 7494   3.380   3.066   3.190
 1866SOL    HW3 7495   3.282   3.104   3.082
 1866SOL    MW4 7496   3.359   3.071   3.106
 1867SOL     OW 7497   3.124   3.214   3.001
 1867SOL    HW2 7498   3.051   3.186   3.057
 1867SOL    HW3 7499   3.091   3.204   2.912
 1867SOL    MW4 7500   3.110   3.209   2.997
 1868SOL     OW 7501   3.133   3.479   3.082
 1868SOL    HW2 7502   3.218   3.513   3.053
 1868SOL    HW3 7503   3.131   3.389   3.049
 1868SOL    MW4 7504   3.144   3.472   3.074
 1869SOL     OW 7505   3.367   3.581   3.025
 1869SOL    HW2 7506   3.436   3.530   3.066
 1869SOL    HW3 7507   3.369   3.665   3.070
 1869SOL    MW4 7508   3.376   3.585   3.037
 1870SOL     OW 7509   3.359   3.847   3.068
 1870SOL    HW2 7510   3.356   3.849   3.163
 1870SOL    HW3 7511   3.269   3.863   3.041
 1870SOL    MW4 7512   3.347   3.849   3.077
 1871SOL     OW 7513   3.129   3.956   2.991
 1871SOL    HW2 7514   3.041   3.927   3.015
 1871SOL    HW3 7515   3.123   3.975   2.898
 1871SOL    MW4 7516   3.116   3.955   2.982
 1872SOL     OW 7517   3.155   4.219   3.125
 1872SOL    HW2 7518   3.156   4.232   3.220
 1872SOL    HW3 7519   3.170   4.125   3.113
 1872SOL    MW4 7520   3.157   4.208   3.136
 1873SOL     OW 7521   3.365   4.397   2.999
 1873SOL    HW2 7522   3.439   4.347   3.035
 1873SOL    HW3 7523   3.287   4.356   3.038
 1873SOL    MW4 7524   3.365   4.385   3.009
 1874SOL     OW 7525   3.826   4.625   3.158
 1874SOL    HW2 7526   3.851   4.539   3.124
 1874SOL    HW3 7527   3.756   4.654   3.099
 1874SOL    MW4 7528   3.820   4.617   3.145
 1875SOL     OW 7529   3.624   0.094   3.039
 1875SOL    HW2 7530   3.629   0.184   3.071
 1875SOL    HW3 7531   3.618   0.104   2.943
 1875SOL    MW4 7532   3.624   0.107   3.030
 1876SOL     OW 7533   3.610   0.367   3.127
 1876SOL    HW2 7534   3.606   0.362   3.223
 1876SOL    HW3 7535   3.691   0.414   3.109
 1876SOL    MW4 7536   3.620   0.372   3.138
 1877SOL     OW 7537   3.822   0.526   3.022
 1877SOL    HW2 7538   3.904   0.484   3.050
 1877SOL    HW3 7539   3.831   0.617   3.051
 1877SOL    MW4 7540   3.834   0.533   3.030
 1878SOL     OW 7541   3.834   0.791   3.144
 1878SOL    HW2 7542   3.849   0.789   3.239
 1878SOL    HW3 7543   3.915   0.829   3.108
 1878SOL    MW4 7544   3.847   0.796   3.152
 1879SOL     OW 7545   3.614   0.877   3.007
 1879SOL    HW2 7546   3.690   0.843   3.054
 1879SOL    HW3 7547   3.540   0.826   3.041
 1879SOL    MW4 7548   3.614   0.866   3.018
 1880SOL     OW 7549   3.594   1.125   3.107
 1880SOL    HW2 7550   3.679   1.157   3.077
 1880SOL    HW3 7551   3.593   1.033   3.081
 1880SOL    MW4 7552   3.605   1.117   3.099
 1881SOL     OW 7553   3.832   1.280   3.045
 1881SOL    HW2 7554   3.835   1.375   3.055
 1881SOL    HW3 7555   3.817   1.266   2.952
 1881SOL    MW4 7556   3.831   1.291   3.034
 1882SOL     OW 7557   3.815   1.544   3.116
 1882SOL    HW2 7558   3.803   1.524   3.209
 1882SOL    HW3 7559   3.730   1.580   3.088
 1882SOL    MW4 7560   3.802   1.546   3.124
 1883SOL     OW 7561   3.569   1.631   3.004
 1883SOL    HW2 7562   3.585   1.721   3.032
 1883SOL    HW3 7563   3.549   1.638   2.911
 1883SOL    MW4 7564   3.568   1.644   2.995
 1884SOL     OW 7565   3.601   1.891   3.111
 1884SOL    HW2 7566   3.601   1.885   3.207
 1884SOL    HW3 7567   3.675   1.949   3.092
 1884SOL    MW4 7568   3.611   1.898   3.121
 1885SOL     OW 7569   3.813   2.035   3.037
 1885SOL    HW2 7570   3.822   2.127   3.064
 1885SOL    HW3 7571   3.800   2.040   2.942
 1885SOL    MW4 7572   3.812   2.048   3.028
 1886SOL     OW 7573   3.856   2.296   3.110
 1886SOL    HW2 7574   3.847   2.309   3.205
 1886SOL    HW3 7575   3.783   2.343   3.072
 1886SOL    MW4 7576   3.845   2.304   3.118
 1887SOL     OW 7577   3.631   2.401   3.014
 1887SOL    HW2 7578   3.615   2.492   3.041
 1887SOL    HW3 7579   3.553   2.354   3.041
 1887SOL    MW4 7580   3.619   2.407   3.021
 1888SOL     OW 7581   3.583   2.670   3.089
 1888SOL    HW2 7582   3.658   2.719   3.056
 1888SOL    HW3 7583   3.508   2.707   3.042
 1888SOL    MW4 7584   3.583   2.681   3.078
 1889SOL     OW 7585   3.828   2.791   3.025
 1889SOL    HW2 7586   3.820   2.880   3.058
 1889SOL    HW3 7587   3.843   2.801   2.931
 1889SOL    MW4 7588   3.829   2.804   3.017
 1890SOL     OW 7589   3.852   3.033   3.121
 1890SOL    HW2 7590   3.933   3.073   3.090
 1890SOL    HW3 7591   3.783   3.092   3.091
 1890SOL    MW4 7592   3.854   3.046   3.113
 1891SOL     OW 7593   3.620   3.195   3.028
 1891SOL    HW2 7594   3.545   3.165   3.079
 1891SOL    HW3 7595   3.593   3.185   2.937
 1891SOL    MW4 7596   3.607   3.190   3.023
 1892SOL     OW 7597   3.599   3.454   3.113
 1892SOL    HW2 7598   3.675   3.504   3.084
 1892SOL    HW3 7599   3.618   3.364   3.086
 1892SOL    MW4 7600   3.611   3.449   3.106
 1893SOL     OW 7601   3.831   3.601   3.036
 1893SOL    HW2 7602   3.829   3.692   3.065
 1893SOL    HW3 7603   3.819   3.606   2.941
 1893SOL    MW4 7604   3.829   3.614   3.028
 1894SOL     OW 7605   3.818   3.863   3.126
 1894SOL    HW2 7606   3.797   3.866   3.220
 1894SOL    HW3 7607   3.746   3.912   3.084
 1894SOL    MW4 7608   3.805   3.870   3.133
 1895SOL     OW 7609   3.578   3.972   2.981
 1895SOL    HW2 7610   3.501   3.926   3.014
 1895SOL    HW3 7611   3.567   3.972   2.886
 1895SOL    MW4 7612   3.566   3.966   2.973
 1896SOL     OW 7613   3.599   4.254   3.089
 1896SOL    HW2 7614   3.678   4.305   3.071
 1896SOL    HW3 7615   3.605   4.179   3.030
 1896SOL    MW4 7616   3.610   4.251   3.079
 1897SOL     OW 7617   3.840   4.380   3.018
 1897SOL    HW2 7618   3.917   4.343   3.061
 1897SOL    HW3 7619   3.863   4.385   2.926
 1897SOL    MW4 7620   3.853   4.376   3.012
 1898SOL     OW 7621   4.231   0.002   3.103
 1898SOL    HW2 7622   4.228  -0.009   3.198
 1898SOL    HW3 7623   4.253  -0.085   3.070
 1898SOL    MW4 7624   4.234  -0.011   3.111
 1899SOL     OW 7625   4.002   0.152   3.055
 1899SOL    HW2 7626   4.085   0.104   3.062
 1899SOL    HW3 7627   3.938   0.096   3.098
 1899SOL    MW4 7628   4.005   0.139   3.061
 1900SOL     OW 7629   4.036   0.407   3.151
 1900SOL    HW2 7630   4.117   0.433   3.108
 1900SOL    HW3 7631   4.022   0.316   3.123
 1900SOL    MW4 7632   4.045   0.398   3.142
 1901SOL     OW 7633   4.268   0.504   3.054
 1901SOL    HW2 7634   4.281   0.593   3.085
 1901SOL    HW3 7635   4.264   0.512   2.958
 1901SOL    MW4 7636   4.269   0.516   3.045
 1902SOL     OW 7637   4.327   0.768   3.137
 1902SOL    HW2 7638   4.258   0.817   3.093
 1902SOL    HW3 7639   4.408   0.816   3.119
 1902SOL    MW4 7640   4.329   0.781   3.129
 1903SOL     OW 7641   4.067   0.901   3.035
 1903SOL    HW2 7642   4.063   0.995   3.054
 1903SOL    HW3 7643   4.060   0.894   2.940
 1903SOL    MW4 7644   4.066   0.912   3.025
 1904SOL     OW 7645   4.071   1.169   3.157
 1904SOL    HW2 7646   4.080   1.180   3.251
 1904SOL    HW3 7647   3.991   1.218   3.135
 1904SOL    MW4 7648   4.061   1.177   3.166
 1905SOL     OW 7649   4.271   1.305   3.033
 1905SOL    HW2 7650   4.205   1.248   3.073
 1905SOL    HW3 7651   4.253   1.299   2.939
 1905SOL    MW4 7652   4.260   1.297   3.026
 1906SOL     OW 7653   4.262   1.559   3.143
 1906SOL    HW2 7654   4.191   1.603   3.096
 1906SOL    HW3 7655   4.269   1.473   3.102
 1906SOL    MW4 7656   4.253   1.554   3.132
 1907SOL     OW 7657   4.045   1.692   3.033
 1907SOL    HW2 7658   4.031   1.779   3.071
 1907SOL    HW3 7659   3.969   1.641   3.061
 1907SOL    MW4 7660   4.033   1.697   3.042
 1908SOL     OW 7661   4.037   1.946   3.151
 1908SOL    HW2 7662   4.110   1.987   3.105
 1908SOL    HW3 7663   3.959   1.982   3.109
 1908SOL    MW4 7664   4.037   1.956   3.139
 1909SOL     OW 7665   4.260   2.066   3.030
 1909SOL    HW2 7666   4.271   2.157   3.056
 1909SOL    HW3 7667   4.246   2.069   2.936
 1909SOL    MW4 7668   4.260   2.078   3.021
 1910SOL     OW 7669   4.263   2.359   3.131
 1910SOL    HW2 7670   4.195   2.411   3.089
 1910SOL    HW3 7671   4.345   2.400   3.105
 1910SOL    MW4 7672   4.265   2.371   3.122
 1911SOL     OW 7673   4.036   2.467   2.994
 1911SOL    HW2 7674   4.033   2.550   3.042
 1911SOL    HW3 7675   3.971   2.412   3.038
 1911SOL    MW4 7676   4.027   2.471   3.006
 1912SOL     OW 7677   4.071   2.724   3.102
 1912SOL    HW2 7678   4.054   2.724   3.197
 1912SOL    HW3 7679   3.985   2.737   3.062
 1912SOL    MW4 7680   4.058   2.726   3.110
 1913SOL     OW 7681   4.302   2.807   2.984
 1913SOL    HW2 7682   4.219   2.784   3.025
 1913SOL    HW3 7683   4.367   2.753   3.028
 1913SOL    MW4 7684   4.300   2.797   2.995
 1914SOL     OW 7685   4.305   3.041   3.124
 1914SOL    HW2 7686   4.221   3.078   3.095
 1914SOL    HW3 7687   4.315   2.962   3.072
 1914SOL    MW4 7688   4.295   3.036   3.114
 1915SOL     OW 7689   4.071   3.168   3.011
 1915SOL    HW2 7690   4.072   3.258   3.044
 1915SOL    HW3 7691   4.069   3.178   2.916
 1915SOL    MW4 7692   4.071   3.181   3.003
 1916SOL     OW 7693   4.047   3.427   3.142
 1916SOL    HW2 7694   4.041   3.410   3.236
 1916SOL    HW3 7695   3.971   3.482   3.124
 1916SOL    MW4 7696   4.036   3.432   3.152
 1917SOL     OW 7697   4.289   3.582   3.101
 1917SOL    HW2 7698   4.265   3.671   3.129
 1917SOL    HW3 7699   4.208   3.532   3.113
 1917SOL    MW4 7700   4.275   3.587   3.106
 1918SOL     OW 7701   4.235   3.851   3.152
 1918SOL    HW2 7702   4.156   3.891   3.115
 1918SOL    HW3 7703   4.306   3.907   3.120
 1918SOL    MW4 7704   4.234   3.864   3.143
 1919SOL     OW 7705   4.032   3.986   3.016
 1919SOL    HW2 7706   4.043   4.067   3.067
 1919SOL    HW3 7707   3.963   3.938   3.062
 1919SOL    MW4 7708   4.025   3.991   3.029
 1920SOL     OW 7709   4.059   4.256   3.116
 1920SOL    HW2 7710   4.073   4.262   3.210
 1920SOL    HW3 7711   4.138   4.293   3.077
 1920SOL    MW4 7712   4.071   4.262   3.123
 1921SOL     OW 7713   4.275   4.417   3.022
 1921SOL    HW2 7714   4.344   4.362   3.059
 1921SOL    HW3 7715   4.282   4.403   2.927
 1921SOL    MW4 7716   4.285   4.408   3.014
 1922SOL     OW 7717   0.209   4.652   3.429
 1922SOL    HW2 7718   0.285   4.706   3.449
 1922SOL    HW3 7719   0.229   4.567   3.467
 1922SOL    MW4 7720   0.221   4.648   3.437
 1923SOL     OW 7721   4.471   0.131   3.513
 1923SOL    HW2 7722   4.482   0.224   3.491
 1923SOL    HW3 7723   4.549   0.089   3.476
 1923SOL    MW4 7724   4.483   0.138   3.505
 1924SOL     OW 7725   0.052   0.370   3.387
 1924SOL    HW2 7726  -0.026   0.411   3.426
 1924SOL    HW3 7727   0.126   0.415   3.428
 1924SOL    MW4 7728   0.052   0.382   3.398
 1925SOL     OW 7729   0.270   0.503   3.477
 1925SOL    HW2 7730   0.355   0.465   3.455
 1925SOL    HW3 7731   0.277   0.594   3.447
 1925SOL    MW4 7732   0.282   0.510   3.470
 1926SOL     OW 7733   0.319   0.752   3.394
 1926SOL    HW2 7734   0.396   0.789   3.437
 1926SOL    HW3 7735   0.246   0.801   3.431
 1926SOL    MW4 7736   0.320   0.764   3.405
 1927SOL     OW 7737   0.104   0.874   3.495
 1927SOL    HW2 7738   0.086   0.883   3.589
 1927SOL    HW3 7739   0.089   0.962   3.460
 1927SOL    MW4 7740   0.100   0.887   3.503
 1928SOL     OW 7741   0.021   1.142   3.409
 1928SOL    HW2 7742   0.091   1.201   3.437
 1928SOL    HW3 7743   0.032   1.135   3.314
 1928SOL    MW4 7744   0.031   1.149   3.400
 1929SOL     OW 7745   0.247   1.258   3.508
 1929SOL    HW2 7746   0.327   1.219   3.475
 1929SOL    HW3 7747   0.242   1.343   3.464
 1929SOL    MW4 7748   0.257   1.264   3.498
 1930SOL     OW 7749   0.188   1.515   3.395
 1930SOL    HW2 7750   0.276   1.531   3.430
 1930SOL    HW3 7751   0.197   1.527   3.301
 1930SOL    MW4 7752   0.201   1.519   3.387
 1931SOL     OW 7753   0.014   1.679   3.510
 1931SOL    HW2 7754  -0.068   1.647   3.473
 1931SOL    HW3 7755   0.082   1.624   3.471
 1931SOL    MW4 7756   0.012   1.668   3.500
 1932SOL     OW 7757   0.040   1.938   3.396
 1932SOL    HW2 7758   0.033   1.846   3.419
 1932SOL    HW3 7759   0.033   1.941   3.301
 1932SOL    MW4 7760   0.038   1.926   3.387
 1933SOL     OW 7761   0.281   2.071   3.512
 1933SOL    HW2 7762   0.279   2.079   3.607
 1933SOL    HW3 7763   0.202   2.022   3.491
 1933SOL    MW4 7764   0.270   2.065   3.522
 1934SOL     OW 7765   0.250   2.321   3.407
 1934SOL    HW2 7766   0.176   2.363   3.451
 1934SOL    HW3 7767   0.260   2.237   3.452
 1934SOL    MW4 7768   0.242   2.315   3.419
 1935SOL     OW 7769   0.037   2.456   3.531
 1935SOL    HW2 7770   0.039   2.438   3.625
 1935SOL    HW3 7771  -0.041   2.411   3.499
 1935SOL    MW4 7772   0.027   2.448   3.539
 1936SOL     OW 7773   0.011   2.722   3.413
 1936SOL    HW2 7774   0.091   2.768   3.438
 1936SOL    HW3 7775   0.027   2.631   3.436
 1936SOL    MW4 7776   0.024   2.716   3.419
 1937SOL     OW 7777   0.264   2.817   3.519
 1937SOL    HW2 7778   0.342   2.788   3.472
 1937SOL    HW3 7779   0.261   2.911   3.503
 1937SOL    MW4 7780   0.274   2.825   3.510
 1938SOL     OW 7781   0.235   3.083   3.423
 1938SOL    HW2 7782   0.144   3.104   3.444
 1938SOL    HW3 7783   0.247   3.116   3.334
 1938SOL    MW4 7784   0.225   3.090   3.414
 1939SOL     OW 7785   0.002   3.186   3.506
 1939SOL    HW2 7786  -0.061   3.139   3.451
 1939SOL    HW3 7787  -0.007   3.277   3.478
 1939SOL    MW4 7788  -0.008   3.192   3.495
 1940SOL     OW 7789   4.474   3.447   3.421
 1940SOL    HW2 7790   4.398   3.505   3.430
 1940SOL    HW3 7791   4.500   3.456   3.329
 1940SOL    MW4 7792   4.468   3.456   3.410
 1941SOL     OW 7793   0.192   3.602   3.490
 1941SOL    HW2 7794   0.213   3.603   3.583
 1941SOL    HW3 7795   0.111   3.551   3.485
 1941SOL    MW4 7796   0.184   3.595   3.502
 1942SOL     OW 7797   0.163   3.857   3.376
 1942SOL    HW2 7798   0.093   3.901   3.423
 1942SOL    HW3 7799   0.161   3.767   3.407
 1942SOL    MW4 7800   0.154   3.851   3.386
 1943SOL     OW 7801   4.472   4.015   3.520
 1943SOL    HW2 7802   4.483   4.017   3.615
 1943SOL    HW3 7803   4.473   4.107   3.494
 1943SOL    MW4 7804   4.474   4.027   3.529
 1944SOL     OW 7805   0.031   4.260   3.411
 1944SOL    HW2 7806  -0.038   4.319   3.442
 1944SOL    HW3 7807   0.113   4.301   3.438
 1944SOL    MW4 7808   0.033   4.273   3.419
 1945SOL     OW 7809   0.257   4.388   3.527
 1945SOL    HW2 7810   0.232   4.379   3.619
 1945SOL    HW3 7811   0.330   4.327   3.515
 1945SOL    MW4 7812   0.263   4.379   3.537
 1946SOL     OW 7813   0.680   0.018   3.358
 1946SOL    HW2 7814   0.758   0.056   3.398
 1946SOL    HW3 7815   0.701   0.011   3.265
 1946SOL    MW4 7816   0.693   0.022   3.351
 1947SOL     OW 7817   0.442   0.138   3.484
 1947SOL    HW2 7818   0.451   0.114   3.576
 1947SOL    HW3 7819   0.517   0.097   3.440
 1947SOL    MW4 7820   0.453   0.129   3.490
 1948SOL     OW 7821   0.510   0.391   3.432
 1948SOL    HW2 7822   0.585   0.431   3.476
 1948SOL    HW3 7823   0.507   0.302   3.467
 1948SOL    MW4 7824   0.519   0.385   3.442
 1949SOL     OW 7825   0.765   0.501   3.523
 1949SOL    HW2 7826   0.754   0.530   3.614
 1949SOL    HW3 7827   0.855   0.468   3.519
 1949SOL    MW4 7828   0.776   0.501   3.534
 1950SOL     OW 7829   0.735   0.751   3.398
 1950SOL    HW2 7830   0.657   0.788   3.439
 1950SOL    HW3 7831   0.737   0.660   3.427
 1950SOL    MW4 7832   0.725   0.744   3.407
 1951SOL     OW 7833   0.527   0.880   3.527
 1951SOL    HW2 7834   0.497   0.866   3.617
 1951SOL    HW3 7835   0.516   0.974   3.512
 1951SOL    MW4 7836   0.521   0.890   3.537
 1952SOL     OW 7837   0.481   1.134   3.404
 1952SOL    HW2 7838   0.563   1.181   3.416
 1952SOL    HW3 7839   0.473   1.124   3.309
 1952SOL    MW4 7840   0.490   1.139   3.393
 1953SOL     OW 7841   0.689   1.297   3.493
 1953SOL    HW2 7842   0.769   1.262   3.454
 1953SOL    HW3 7843   0.665   1.371   3.437
 1953SOL    MW4 7844   0.696   1.302   3.480
 1954SOL     OW 7845   0.656   1.520   3.347
 1954SOL    HW2 7846   0.735   1.567   3.374
 1954SOL    HW3 7847   0.587   1.554   3.405
 1954SOL    MW4 7848   0.657   1.531   3.359
 1955SOL     OW 7849   0.441   1.607   3.506
 1955SOL    HW2 7850   0.429   1.610   3.601
 1955SOL    HW3 7851   0.438   1.699   3.478
 1955SOL    MW4 7852   0.439   1.619   3.515
 1956SOL     OW 7853   0.453   1.879   3.389
 1956SOL    HW2 7854   0.395   1.946   3.426
 1956SOL    HW3 7855   0.446   1.892   3.295
 1956SOL    MW4 7856   0.444   1.889   3.382
 1957SOL     OW 7857   0.640   2.040   3.481
 1957SOL    HW2 7858   0.637   2.027   3.575
 1957SOL    HW3 7859   0.569   1.985   3.447
 1957SOL    MW4 7860   0.630   2.031   3.489
 1958SOL     OW 7861   0.685   2.293   3.337
 1958SOL    HW2 7862   0.750   2.342   3.387
 1958SOL    HW3 7863   0.675   2.210   3.383
 1958SOL    MW4 7864   0.692   2.288   3.349
 1959SOL     OW 7865   0.477   2.454   3.476
 1959SOL    HW2 7866   0.544   2.400   3.434
 1959SOL    HW3 7867   0.394   2.413   3.451
 1959SOL    MW4 7868   0.475   2.441   3.467
 1960SOL     OW 7869   0.488   2.705   3.392
 1960SOL    HW2 7870   0.481   2.614   3.420
 1960SOL    HW3 7871   0.464   2.704   3.300
 1960SOL    MW4 7872   0.484   2.693   3.384
 1961SOL     OW 7873   0.681   2.874   3.513
 1961SOL    HW2 7874   0.762   2.843   3.472
 1961SOL    HW3 7875   0.614   2.812   3.485
 1961SOL    MW4 7876   0.683   2.862   3.504
 1962SOL     OW 7877   0.645   3.100   3.381
 1962SOL    HW2 7878   0.581   3.160   3.419
 1962SOL    HW3 7879   0.645   3.025   3.440
 1962SOL    MW4 7880   0.637   3.098   3.394
 1963SOL     OW 7881   0.441   3.250   3.524
 1963SOL    HW2 7882   0.448   3.246   3.619
 1963SOL    HW3 7883   0.369   3.191   3.502
 1963SOL    MW4 7884   0.433   3.241   3.534
 1964SOL     OW 7885   0.430   3.486   3.387
 1964SOL    HW2 7886   0.432   3.399   3.426
 1964SOL    HW3 7887   0.349   3.526   3.419
 1964SOL    MW4 7888   0.420   3.480   3.396
 1965SOL     OW 7889   0.693   3.628   3.422
 1965SOL    HW2 7890   0.765   3.565   3.415
 1965SOL    HW3 7891   0.613   3.575   3.416
 1965SOL    MW4 7892   0.692   3.613   3.421
 1966SOL     OW 7893   0.655   3.891   3.346
 1966SOL    HW2 7894   0.563   3.909   3.363
 1966SOL    HW3 7895   0.666   3.798   3.368
 1966SOL    MW4 7896   0.644   3.881   3.351
 1967SOL     OW 7897   0.419   3.951   3.491
 1967SOL    HW2 7898   0.443   4.040   3.465
 1967SOL    HW3 7899   0.337   3.933   3.446
 1967SOL    MW4 7900   0.411   3.960   3.482
 1968SOL     OW 7901   0.451   4.220   3.400
 1968SOL    HW2 7902   0.515   4.282   3.435
 1968SOL    HW3 7903   0.439   4.247   3.309
 1968SOL    MW4 7904   0.458   4.232   3.392
 1969SOL     OW 7905   0.661   4.405   3.489
 1969SOL    HW2 7906   0.739   4.366   3.451
 1969SOL    HW3 7907   0.664   4.497   3.463
 1969SOL    MW4 7908   0.672   4.412   3.481
 1970SOL     OW 7909   1.113   4.664   3.399
 1970SOL    HW2 7910   1.193   4.700   3.437
 1970SOL    HW3 7911   1.116   4.692   3.307
 1970SOL    MW4 7912   1.124   4.672   3.392
 1971SOL     OW 7913   0.890   0.134   3.502
 1971SOL    HW2 7914   0.897   0.140   3.598
 1971SOL    HW3 7915   0.968   0.085   3.476
 1971SOL    MW4 7916   0.901   0.128   3.511
 1972SOL     OW 7917   0.932   0.326   3.295
 1972SOL    HW2 7918   0.984   0.387   3.347
 1972SOL    HW3 7919   0.916   0.252   3.355
 1972SOL    MW4 7920   0.937   0.324   3.310
 1973SOL     OW 7921   1.064   0.506   3.496
 1973SOL    HW2 7922   1.080   0.517   3.590
 1973SOL    HW3 7923   1.089   0.590   3.458
 1973SOL    MW4 7924   1.070   0.518   3.503
 1974SOL     OW 7925   1.117   0.759   3.399
 1974SOL    HW2 7926   1.193   0.810   3.424
 1974SOL    HW3 7927   1.044   0.800   3.445
 1974SOL    MW4 7928   1.117   0.771   3.408
 1975SOL     OW 7929   0.919   0.909   3.522
 1975SOL    HW2 7930   0.917   0.999   3.490
 1975SOL    HW3 7931   0.846   0.866   3.478
 1975SOL    MW4 7932   0.909   0.916   3.512
 1976SOL     OW 7933   0.901   1.161   3.390
 1976SOL    HW2 7934   0.994   1.177   3.407
 1976SOL    HW3 7935   0.890   1.182   3.298
 1976SOL    MW4 7936   0.912   1.166   3.380
 1977SOL     OW 7937   1.145   1.275   3.476
 1977SOL    HW2 7938   1.138   1.289   3.571
 1977SOL    HW3 7939   1.136   1.362   3.438
 1977SOL    MW4 7940   1.143   1.288   3.484
 1978SOL     OW 7941   1.123   1.541   3.406
 1978SOL    HW2 7942   1.178   1.613   3.437
 1978SOL    HW3 7943   1.131   1.545   3.310
 1978SOL    MW4 7944   1.131   1.551   3.397
 1979SOL     OW 7945   0.880   1.653   3.406
 1979SOL    HW2 7946   0.901   1.742   3.379
 1979SOL    HW3 7947   0.964   1.607   3.405
 1979SOL    MW4 7948   0.894   1.659   3.402
 1980SOL     OW 7949   0.898   1.925   3.350
 1980SOL    HW2 7950   0.969   1.979   3.386
 1980SOL    HW3 7951   0.819   1.956   3.395
 1980SOL    MW4 7952   0.897   1.937   3.361
 1981SOL     OW 7953   1.110   2.073   3.490
 1981SOL    HW2 7954   1.201   2.061   3.461
 1981SOL    HW3 7955   1.091   2.165   3.471
 1981SOL    MW4 7956   1.120   2.084   3.484
 1982SOL     OW 7957   1.115   2.334   3.383
 1982SOL    HW2 7958   1.202   2.365   3.406
 1982SOL    HW3 7959   1.114   2.333   3.288
 1982SOL    MW4 7960   1.126   2.338   3.374
 1983SOL     OW 7961   0.901   2.467   3.490
 1983SOL    HW2 7962   0.900   2.446   3.583
 1983SOL    HW3 7963   0.980   2.425   3.457
 1983SOL    MW4 7964   0.911   2.459   3.498
 1984SOL     OW 7965   0.909   2.731   3.408
 1984SOL    HW2 7966   0.998   2.757   3.431
 1984SOL    HW3 7967   0.902   2.641   3.440
 1984SOL    MW4 7968   0.920   2.723   3.415
 1985SOL     OW 7969   1.139   2.832   3.506
 1985SOL    HW2 7970   1.144   2.832   3.601
 1985SOL    HW3 7971   1.207   2.771   3.478
 1985SOL    MW4 7972   1.148   2.824   3.515
 1986SOL     OW 7973   1.104   3.080   3.365
 1986SOL    HW2 7974   1.118   2.992   3.400
 1986SOL    HW3 7975   1.114   3.071   3.271
 1986SOL    MW4 7976   1.107   3.067   3.357
 1987SOL     OW 7977   0.900   3.190   3.515
 1987SOL    HW2 7978   0.974   3.169   3.458
 1987SOL    HW3 7979   0.824   3.158   3.467
 1987SOL    MW4 7980   0.900   3.183   3.501
 1988SOL     OW 7981   0.914   3.466   3.411
 1988SOL    HW2 7982   0.896   3.373   3.429
 1988SOL    HW3 7983   0.912   3.472   3.315
 1988SOL    MW4 7984   0.911   3.454   3.400
 1989SOL     OW 7985   1.141   3.628   3.507
 1989SOL    HW2 7986   1.143   3.606   3.600
 1989SOL    HW3 7987   1.069   3.576   3.472
 1989SOL    MW4 7988   1.132   3.618   3.514
 1990SOL     OW 7989   1.094   3.870   3.411
 1990SOL    HW2 7990   1.164   3.932   3.429
 1990SOL    HW3 7991   1.125   3.787   3.446
 1990SOL    MW4 7992   1.108   3.867   3.418
 1991SOL     OW 7993   0.858   4.005   3.501
 1991SOL    HW2 7994   0.936   3.953   3.484
 1991SOL    HW3 7995   0.792   3.970   3.443
 1991SOL    MW4 7996   0.860   3.994   3.491
 1992SOL     OW 7997   0.901   4.276   3.413
 1992SOL    HW2 7998   0.897   4.184   3.440
 1992SOL    HW3 7999   0.921   4.272   3.320
 1992SOL    MW4 8000   0.903   4.263   3.404
 1993SOL     OW 8001   1.128   4.419   3.505
 1993SOL    HW2 8002   1.048   4.373   3.482
 1993SOL    HW3 8003   1.113   4.509   3.479
 1993SOL    MW4 8004   1.116   4.425   3.499
 1994SOL     OW 8005   1.564   4.608   3.392
 1994SOL    HW2 8006   1.576   4.530   3.446
 1994SOL    HW3 8007   1.483   4.648   3.424
 1994SOL    MW4 8008   1.555   4.603   3.403
 1995SOL     OW 8009   1.358   0.125   3.484
 1995SOL    HW2 8010   1.340   0.115   3.577
 1995SOL    HW3 8011   1.347   0.219   3.467
 1995SOL    MW4 8012   1.354   0.136   3.494
 1996SOL     OW 8013   1.287   0.386   3.415
 1996SOL    HW2 8014   1.354   0.431   3.467
 1996SOL    HW3 8015   1.204   0.420   3.448
 1996SOL    MW4 8016   1.285   0.396   3.426
 1997SOL     OW 8017   1.512   0.485   3.506
 1997SOL    HW2 8018   1.538   0.507   3.596
 1997SOL    HW3 8019   1.583   0.431   3.473
 1997SOL    MW4 8020   1.525   0.481   3.514
 1998SOL     OW 8021   1.560   0.755   3.428
 1998SOL    HW2 8022   1.476   0.795   3.453
 1998SOL    HW3 8023   1.544   0.661   3.435
 1998SOL    MW4 8024   1.547   0.748   3.433
 1999SOL     OW 8025   1.322   0.904   3.492
 1999SOL    HW2 8026   1.329   0.924   3.585
 1999SOL    HW3 8027   1.346   0.985   3.448
 1999SOL    MW4 8028   1.326   0.917   3.499
 2000SOL     OW 8029   1.393   1.156   3.389
 2000SOL    HW2 8030   1.461   1.194   3.445
 2000SOL    HW3 8031   1.312   1.201   3.415
 2000SOL    MW4 8032   1.391   1.167   3.400
 2001SOL     OW 8033   1.586   1.268   3.536
 2001SOL    HW2 8034   1.593   1.240   3.627
 2001SOL    HW3 8035   1.670   1.243   3.497
 2001SOL    MW4 8036   1.598   1.261   3.543
 2002SOL     OW 8037   1.551   1.545   3.453
 2002SOL    HW2 8038   1.560   1.455   3.484
 2002SOL    HW3 8039   1.554   1.538   3.358
 2002SOL    MW4 8040   1.552   1.532   3.444
 2003SOL     OW 8041   1.332   1.700   3.486
 2003SOL    HW2 8042   1.336   1.711   3.581
 2003SOL    HW3 8043   1.392   1.628   3.467
 2003SOL    MW4 8044   1.340   1.692   3.496
 2004SOL     OW 8045   1.349   1.957   3.390
 2004SOL    HW2 8046   1.429   1.977   3.438
 2004SOL    HW3 8047   1.327   1.868   3.417
 2004SOL    MW4 8048   1.357   1.948   3.400
 2005SOL     OW 8049   1.582   2.015   3.519
 2005SOL    HW2 8050   1.656   1.981   3.469
 2005SOL    HW3 8051   1.570   2.104   3.487
 2005SOL    MW4 8052   1.590   2.022   3.509
 2006SOL     OW 8053   1.582   2.284   3.414
 2006SOL    HW2 8054   1.507   2.336   3.445
 2006SOL    HW3 8055   1.574   2.285   3.319
 2006SOL    MW4 8056   1.571   2.291   3.406
 2007SOL     OW 8057   1.360   2.414   3.499
 2007SOL    HW2 8058   1.367   2.419   3.594
 2007SOL    HW3 8059   1.362   2.505   3.470
 2007SOL    MW4 8060   1.361   2.426   3.508
 2008SOL     OW 8061   1.333   2.675   3.402
 2008SOL    HW2 8062   1.408   2.728   3.431
 2008SOL    HW3 8063   1.338   2.677   3.306
 2008SOL    MW4 8064   1.343   2.682   3.393
 2009SOL     OW 8065   1.575   2.777   3.503
 2009SOL    HW2 8066   1.653   2.737   3.464
 2009SOL    HW3 8067   1.588   2.871   3.492
 2009SOL    MW4 8068   1.587   2.784   3.497
 2010SOL     OW 8069   1.586   3.069   3.437
 2010SOL    HW2 8070   1.645   3.144   3.450
 2010SOL    HW3 8071   1.498   3.107   3.437
 2010SOL    MW4 8072   1.582   3.084   3.439
 2011SOL     OW 8073   1.345   3.192   3.479
 2011SOL    HW2 8074   1.334   3.219   3.570
 2011SOL    HW3 8075   1.258   3.162   3.453
 2011SOL    MW4 8076   1.332   3.192   3.488
 2012SOL     OW 8077   1.349   3.470   3.371
 2012SOL    HW2 8078   1.350   3.385   3.415
 2012SOL    HW3 8079   1.270   3.514   3.403
 2012SOL    MW4 8080   1.339   3.465   3.381
 2013SOL     OW 8081   1.549   3.639   3.469
 2013SOL    HW2 8082   1.550   3.637   3.565
 2013SOL    HW3 8083   1.481   3.576   3.444
 2013SOL    MW4 8084   1.540   3.631   3.478
 2014SOL     OW 8085   1.534   3.909   3.385
 2014SOL    HW2 8086   1.545   3.816   3.403
 2014SOL    HW3 8087   1.544   3.916   3.290
 2014SOL    MW4 8088   1.537   3.898   3.375
 2015SOL     OW 8089   1.296   4.037   3.472
 2015SOL    HW2 8090   1.299   4.124   3.433
 2015SOL    HW3 8091   1.379   3.996   3.448
 2015SOL    MW4 8092   1.307   4.043   3.464
 2016SOL     OW 8093   1.348   4.296   3.386
 2016SOL    HW2 8094   1.283   4.364   3.406
 2016SOL    HW3 8095   1.345   4.288   3.290
 2016SOL    MW4 8096   1.339   4.304   3.376
 2017SOL     OW 8097   1.566   4.359   3.546
 2017SOL    HW2 8098   1.638   4.328   3.492
 2017SOL    HW3 8099   1.487   4.330   3.500
 2017SOL    MW4 8100   1.565   4.351   3.533
 2018SOL     OW 8101   2.013   0.020   3.332
 2018SOL    HW2 8102   2.089   0.056   3.378
 2018SOL    HW3 8103   1.938   0.051   3.382
 2018SOL    MW4 8104   2.013   0.029   3.345
 2019SOL     OW 8105   1.796   0.090   3.470
 2019SOL    HW2 8106   1.794   0.098   3.565
 2019SOL    HW3 8107   1.714   0.045   3.449
 2019SOL    MW4 8108   1.785   0.085   3.480
 2020SOL     OW 8109   1.732   0.349   3.385
 2020SOL    HW2 8110   1.745   0.257   3.407
 2020SOL    HW3 8111   1.764   0.358   3.296
 2020SOL    MW4 8112   1.738   0.338   3.376
 2021SOL     OW 8113   1.967   0.484   3.486
 2021SOL    HW2 8114   1.969   0.571   3.448
 2021SOL    HW3 8115   1.887   0.444   3.452
 2021SOL    MW4 8116   1.957   0.490   3.477
 2022SOL     OW 8117   1.974   0.735   3.401
 2022SOL    HW2 8118   2.057   0.765   3.438
 2022SOL    HW3 8119   1.973   0.770   3.312
 2022SOL    MW4 8120   1.985   0.743   3.394
 2023SOL     OW 8121   1.779   0.920   3.476
 2023SOL    HW2 8122   1.848   0.863   3.440
 2023SOL    HW3 8123   1.698   0.872   3.459
 2023SOL    MW4 8124   1.777   0.906   3.469
 2024SOL     OW 8125   1.812   1.196   3.390
 2024SOL    HW2 8126   1.897   1.217   3.429
 2024SOL    HW3 8127   1.799   1.103   3.411
 2024SOL    MW4 8128   1.822   1.186   3.398
 2025SOL     OW 8129   2.074   1.277   3.457
 2025SOL    HW2 8130   2.064   1.285   3.552
 2025SOL    HW3 8131   2.050   1.364   3.423
 2025SOL    MW4 8132   2.070   1.290   3.465
 2026SOL     OW 8133   2.026   1.539   3.350
 2026SOL    HW2 8134   2.103   1.585   3.384
 2026SOL    HW3 8135   1.956   1.561   3.412
 2026SOL    MW4 8136   2.027   1.548   3.363
 2027SOL     OW 8137   1.803   1.648   3.496
 2027SOL    HW2 8138   1.777   1.730   3.453
 2027SOL    HW3 8139   1.730   1.588   3.479
 2027SOL    MW4 8140   1.790   1.651   3.489
 2028SOL     OW 8141   1.777   1.899   3.358
 2028SOL    HW2 8142   1.850   1.941   3.405
 2028SOL    HW3 8143   1.796   1.915   3.266
 2028SOL    MW4 8144   1.790   1.907   3.352
 2029SOL     OW 8145   1.997   2.015   3.475
 2029SOL    HW2 8146   2.082   1.972   3.472
 2029SOL    HW3 8147   2.015   2.106   3.452
 2029SOL    MW4 8148   2.011   2.022   3.472
 2030SOL     OW 8149   2.029   2.275   3.384
 2030SOL    HW2 8150   2.093   2.344   3.400
 2030SOL    HW3 8151   2.022   2.271   3.289
 2030SOL    MW4 8152   2.036   2.283   3.374
 2031SOL     OW 8153   1.827   2.410   3.489
 2031SOL    HW2 8154   1.900   2.355   3.463
 2031SOL    HW3 8155   1.749   2.361   3.462
 2031SOL    MW4 8156   1.826   2.397   3.482
 2032SOL     OW 8157   1.794   2.677   3.365
 2032SOL    HW2 8158   1.858   2.744   3.388
 2032SOL    HW3 8159   1.821   2.600   3.414
 2032SOL    MW4 8160   1.806   2.676   3.375
 2033SOL     OW 8161   1.984   2.857   3.479
 2033SOL    HW2 8162   1.988   2.845   3.574
 2033SOL    HW3 8163   1.958   2.949   3.468
 2033SOL    MW4 8164   1.981   2.868   3.490
 2034SOL     OW 8165   1.985   3.124   3.383
 2034SOL    HW2 8166   2.065   3.160   3.422
 2034SOL    HW3 8167   1.915   3.177   3.421
 2034SOL    MW4 8168   1.986   3.136   3.393
 2035SOL     OW 8169   1.778   3.277   3.486
 2035SOL    HW2 8170   1.774   3.283   3.582
 2035SOL    HW3 8171   1.795   3.367   3.457
 2035SOL    MW4 8172   1.780   3.290   3.495
 2036SOL     OW 8173   1.793   3.542   3.427
 2036SOL    HW2 8174   1.710   3.590   3.437
 2036SOL    HW3 8175   1.794   3.517   3.334
 2036SOL    MW4 8176   1.782   3.545   3.416
 2037SOL     OW 8177   2.029   3.633   3.517
 2037SOL    HW2 8178   2.086   3.568   3.475
 2037SOL    HW3 8179   1.940   3.604   3.496
 2037SOL    MW4 8180   2.025   3.620   3.508
 2038SOL     OW 8181   2.049   3.899   3.423
 2038SOL    HW2 8182   1.963   3.939   3.428
 2038SOL    HW3 8183   2.040   3.817   3.472
 2038SOL    MW4 8184   2.037   3.893   3.430
 2039SOL     OW 8185   1.804   4.022   3.438
 2039SOL    HW2 8186   1.814   4.042   3.532
 2039SOL    HW3 8187   1.718   3.981   3.432
 2039SOL    MW4 8188   1.794   4.019   3.450
 2040SOL     OW 8189   1.794   4.296   3.383
 2040SOL    HW2 8190   1.810   4.202   3.380
 2040SOL    HW3 8191   1.769   4.319   3.293
 2040SOL    MW4 8192   1.793   4.287   3.371
 2041SOL     OW 8193   2.044   4.440   3.491
 2041SOL    HW2 8194   1.961   4.400   3.464
 2041SOL    HW3 8195   2.048   4.522   3.443
 2041SOL    MW4 8196   2.034   4.445   3.481
 2042SOL     OW 8197   2.439   4.646   3.431
 2042SOL    HW2 8198   2.457   4.556   3.458
 2042SOL    HW3 8199   2.447   4.644   3.336
 2042SOL    MW4 8200   2.443   4.634   3.422
 2043SOL     OW 8201   2.195   0.107   3.529
 2043SOL    HW2 8202   2.217   0.199   3.513
 2043SOL    HW3 8203   2.274   0.059   3.503
 2043SOL    MW4 8204   2.209   0.113   3.523
 2044SOL     OW 8205   2.206   0.357   3.412
 2044SOL    HW2 8206   2.276   0.418   3.433
 2044SOL    HW3 8207   2.126   0.403   3.437
 2044SOL    MW4 8208   2.205   0.371   3.418
 2045SOL     OW 8209   2.457   0.493   3.498
 2045SOL    HW2 8210   2.536   0.449   3.466
 2045SOL    HW3 8211   2.458   0.579   3.456
 2045SOL    MW4 8212   2.468   0.498   3.488
 2046SOL     OW 8213   2.460   0.752   3.389
 2046SOL    HW2 8214   2.539   0.795   3.421
 2046SOL    HW3 8215   2.467   0.758   3.293
 2046SOL    MW4 8216   2.471   0.759   3.380
 2047SOL     OW 8217   2.227   0.853   3.496
 2047SOL    HW2 8218   2.235   0.946   3.475
 2047SOL    HW3 8219   2.306   0.813   3.458
 2047SOL    MW4 8220   2.239   0.860   3.488
 2048SOL     OW 8221   2.280   1.117   3.415
 2048SOL    HW2 8222   2.349   1.181   3.428
 2048SOL    HW3 8223   2.199   1.165   3.432
 2048SOL    MW4 8224   2.278   1.132   3.419
 2049SOL     OW 8225   2.490   1.288   3.496
 2049SOL    HW2 8226   2.490   1.285   3.591
 2049SOL    HW3 8227   2.565   1.234   3.471
 2049SOL    MW4 8228   2.500   1.280   3.505
 2050SOL     OW 8229   2.518   1.559   3.408
 2050SOL    HW2 8230   2.497   1.468   3.427
 2050SOL    HW3 8231   2.512   1.565   3.312
 2050SOL    MW4 8232   2.514   1.548   3.398
 2051SOL     OW 8233   2.256   1.653   3.471
 2051SOL    HW2 8234   2.259   1.647   3.566
 2051SOL    HW3 8235   2.341   1.621   3.442
 2051SOL    MW4 8236   2.268   1.648   3.480
 2052SOL     OW 8237   2.256   1.919   3.415
 2052SOL    HW2 8238   2.249   1.826   3.439
 2052SOL    HW3 8239   2.236   1.921   3.322
 2052SOL    MW4 8240   2.253   1.907   3.406
 2053SOL     OW 8241   2.486   2.035   3.527
 2053SOL    HW2 8242   2.477   2.025   3.622
 2053SOL    HW3 8243   2.411   1.988   3.491
 2053SOL    MW4 8244   2.474   2.028   3.535
 2054SOL     OW 8245   2.447   2.304   3.431
 2054SOL    HW2 8246   2.528   2.349   3.454
 2054SOL    HW3 8247   2.457   2.216   3.468
 2054SOL    MW4 8248   2.459   2.298   3.439
 2055SOL     OW 8249   2.220   2.453   3.453
 2055SOL    HW2 8250   2.247   2.540   3.423
 2055SOL    HW3 8251   2.297   2.398   3.438
 2055SOL    MW4 8252   2.234   2.457   3.447
 2056SOL     OW 8253   2.231   2.723   3.411
 2056SOL    HW2 8254   2.139   2.749   3.424
 2056SOL    HW3 8255   2.243   2.725   3.317
 2056SOL    MW4 8256   2.220   2.727   3.401
 2057SOL     OW 8257   2.476   2.839   3.505
 2057SOL    HW2 8258   2.467   2.926   3.468
 2057SOL    HW3 8259   2.392   2.796   3.486
 2057SOL    MW4 8260   2.463   2.845   3.497
 2058SOL     OW 8261   2.482   3.105   3.419
 2058SOL    HW2 8262   2.550   3.160   3.459
 2058SOL    HW3 8263   2.486   3.127   3.326
 2058SOL    MW4 8264   2.491   3.116   3.412
 2059SOL     OW 8265   2.226   3.214   3.486
 2059SOL    HW2 8266   2.233   3.222   3.581
 2059SOL    HW3 8267   2.291   3.148   3.463
 2059SOL    MW4 8268   2.235   3.206   3.496
 2060SOL     OW 8269   2.220   3.494   3.381
 2060SOL    HW2 8270   2.222   3.405   3.415
 2060SOL    HW3 8271   2.231   3.484   3.286
 2060SOL    MW4 8272   2.222   3.481   3.373
 2061SOL     OW 8273   2.457   3.625   3.510
 2061SOL    HW2 8274   2.468   3.704   3.458
 2061SOL    HW3 8275   2.386   3.577   3.466
 2061SOL    MW4 8276   2.449   3.629   3.497
 2062SOL     OW 8277   2.458   3.877   3.349
 2062SOL    HW2 8278   2.541   3.920   3.371
 2062SOL    HW3 8279   2.392   3.928   3.394
 2062SOL    MW4 8280   2.460   3.889   3.358
 2063SOL     OW 8281   2.286   4.003   3.507
 2063SOL    HW2 8282   2.267   4.091   3.474
 2063SOL    HW3 8283   2.213   3.949   3.475
 2063SOL    MW4 8284   2.274   4.007   3.498
 2064SOL     OW 8285   2.251   4.272   3.407
 2064SOL    HW2 8286   2.181   4.329   3.437
 2064SOL    HW3 8287   2.243   4.272   3.311
 2064SOL    MW4 8288   2.241   4.279   3.398
 2065SOL     OW 8289   2.498   4.387   3.495
 2065SOL    HW2 8290   2.510   4.352   3.583
 2065SOL    HW3 8291   2.417   4.346   3.464
 2065SOL    MW4 8292   2.489   4.377   3.503
 2066SOL     OW 8293   2.962   4.666   3.377
 2066SOL    HW2 8294   2.869   4.667   3.399
 2066SOL    HW3 8295   2.965   4.660   3.282
 2066SOL    MW4 8296   2.951   4.666   3.368
 2067SOL     OW 8297   2.698   0.090   3.464
 2067SOL    HW2 8298   2.696   0.183   3.445
 2067SOL    HW3 8299   2.606   0.064   3.466
 2067SOL    MW4 8300   2.685   0.099   3.462
 2068SOL     OW 8301   2.690   0.375   3.418
 2068SOL    HW2 8302   2.752   0.431   3.466
 2068SOL    HW3 8303   2.705   0.396   3.326
 2068SOL    MW4 8304   2.700   0.385   3.412
 2069SOL     OW 8305   2.923   0.515   3.525
 2069SOL    HW2 8306   2.934   0.516   3.620
 2069SOL    HW3 8307   2.930   0.607   3.499
 2069SOL    MW4 8308   2.925   0.527   3.534
 2070SOL     OW 8309   2.923   0.778   3.422
 2070SOL    HW2 8310   2.986   0.831   3.470
 2070SOL    HW3 8311   2.838   0.818   3.442
 2070SOL    MW4 8312   2.920   0.790   3.431
 2071SOL     OW 8313   2.685   0.876   3.490
 2071SOL    HW2 8314   2.706   0.869   3.583
 2071SOL    HW3 8315   2.685   0.970   3.473
 2071SOL    MW4 8316   2.688   0.887   3.500
 2072SOL     OW 8317   2.723   1.162   3.404
 2072SOL    HW2 8318   2.801   1.199   3.443
 2072SOL    HW3 8319   2.738   1.168   3.310
 2072SOL    MW4 8320   2.735   1.168   3.397
 2073SOL     OW 8321   2.960   1.272   3.528
 2073SOL    HW2 8322   2.967   1.245   3.619
 2073SOL    HW3 8323   3.030   1.226   3.483
 2073SOL    MW4 8324   2.970   1.263   3.534
 2074SOL     OW 8325   2.967   1.524   3.416
 2074SOL    HW2 8326   2.885   1.568   3.439
 2074SOL    HW3 8327   2.963   1.440   3.462
 2074SOL    MW4 8328   2.955   1.518   3.425
 2075SOL     OW 8329   2.754   1.657   3.503
 2075SOL    HW2 8330   2.768   1.751   3.488
 2075SOL    HW3 8331   2.664   1.642   3.473
 2075SOL    MW4 8332   2.744   1.667   3.497
 2076SOL     OW 8333   2.721   1.934   3.432
 2076SOL    HW2 8334   2.641   1.977   3.461
 2076SOL    HW3 8335   2.706   1.916   3.339
 2076SOL    MW4 8336   2.708   1.937   3.423
 2077SOL     OW 8337   2.937   2.103   3.503
 2077SOL    HW2 8338   2.938   2.098   3.599
 2077SOL    HW3 8339   2.858   2.056   3.478
 2077SOL    MW4 8340   2.927   2.097   3.513
 2078SOL     OW 8341   2.957   2.355   3.389
 2078SOL    HW2 8342   2.950   2.267   3.424
 2078SOL    HW3 8343   2.961   2.343   3.294
 2078SOL    MW4 8344   2.956   2.342   3.381
 2079SOL     OW 8345   2.695   2.448   3.491
 2079SOL    HW2 8346   2.694   2.461   3.585
 2079SOL    HW3 8347   2.781   2.409   3.473
 2079SOL    MW4 8348   2.707   2.444   3.501
 2080SOL     OW 8349   2.721   2.731   3.403
 2080SOL    HW2 8350   2.722   2.637   3.420
 2080SOL    HW3 8351   2.643   2.763   3.449
 2080SOL    MW4 8352   2.711   2.723   3.411
 2081SOL     OW 8353   2.967   2.825   3.471
 2081SOL    HW2 8354   2.972   2.815   3.566
 2081SOL    HW3 8355   2.875   2.805   3.450
 2081SOL    MW4 8356   2.955   2.821   3.481
 2082SOL     OW 8357   2.915   3.113   3.416
 2082SOL    HW2 8358   2.931   3.021   3.436
 2082SOL    HW3 8359   2.911   3.117   3.320
 2082SOL    MW4 8360   2.917   3.102   3.406
 2083SOL     OW 8361   2.696   3.248   3.548
 2083SOL    HW2 8362   2.703   3.237   3.642
 2083SOL    HW3 8363   2.773   3.204   3.512
 2083SOL    MW4 8364   2.707   3.241   3.555
 2084SOL     OW 8365   2.683   3.506   3.410
 2084SOL    HW2 8366   2.699   3.425   3.459
 2084SOL    HW3 8367   2.606   3.544   3.452
 2084SOL    MW4 8368   2.675   3.501   3.422
 2085SOL     OW 8369   2.929   3.602   3.480
 2085SOL    HW2 8370   2.935   3.687   3.436
 2085SOL    HW3 8371   2.838   3.575   3.468
 2085SOL    MW4 8372   2.917   3.610   3.473
 2086SOL     OW 8373   2.902   3.874   3.349
 2086SOL    HW2 8374   2.977   3.922   3.384
 2086SOL    HW3 8375   2.826   3.912   3.394
 2086SOL    MW4 8376   2.902   3.885   3.359
 2087SOL     OW 8377   2.689   4.000   3.441
 2087SOL    HW2 8378   2.670   4.002   3.535
 2087SOL    HW3 8379   2.703   4.092   3.418
 2087SOL    MW4 8380   2.688   4.013   3.450
 2088SOL     OW 8381   2.736   4.284   3.375
 2088SOL    HW2 8382   2.813   4.321   3.419
 2088SOL    HW3 8383   2.663   4.337   3.405
 2088SOL    MW4 8384   2.737   4.296   3.385
 2089SOL     OW 8385   2.946   4.409   3.505
 2089SOL    HW2 8386   2.933   4.425   3.599
 2089SOL    HW3 8387   2.976   4.493   3.471
 2089SOL    MW4 8388   2.948   4.422   3.513
 2090SOL     OW 8389   3.356   4.659   3.406
 2090SOL    HW2 8390   3.292   4.727   3.429
 2090SOL    HW3 8391   3.369   4.670   3.312
 2090SOL    MW4 8392   3.349   4.670   3.397
 2091SOL     OW 8393   3.166   0.163   3.497
 2091SOL    HW2 8394   3.148   0.253   3.469
 2091SOL    HW3 8395   3.096   0.111   3.458
 2091SOL    MW4 8396   3.154   0.168   3.488
 2092SOL     OW 8397   3.154   0.421   3.422
 2092SOL    HW2 8398   3.070   0.458   3.450
 2092SOL    HW3 8399   3.141   0.400   3.329
 2092SOL    MW4 8400   3.141   0.423   3.413
 2093SOL     OW 8401   3.398   0.511   3.528
 2093SOL    HW2 8402   3.390   0.500   3.622
 2093SOL    HW3 8403   3.312   0.487   3.493
 2093SOL    MW4 8404   3.386   0.506   3.536
 2094SOL     OW 8405   3.405   0.789   3.421
 2094SOL    HW2 8406   3.487   0.832   3.447
 2094SOL    HW3 8407   3.414   0.700   3.456
 2094SOL    MW4 8408   3.417   0.782   3.429
 2095SOL     OW 8409   3.166   0.881   3.555
 2095SOL    HW2 8410   3.151   0.965   3.511
 2095SOL    HW3 8411   3.247   0.848   3.515
 2095SOL    MW4 8412   3.175   0.888   3.544
 2096SOL     OW 8413   3.148   1.116   3.407
 2096SOL    HW2 8414   3.228   1.163   3.430
 2096SOL    HW3 8415   3.130   1.144   3.317
 2096SOL    MW4 8416   3.156   1.126   3.398
 2097SOL     OW 8417   3.355   1.255   3.492
 2097SOL    HW2 8418   3.431   1.224   3.443
 2097SOL    HW3 8419   3.350   1.348   3.474
 2097SOL    MW4 8420   3.364   1.263   3.484
 2098SOL     OW 8421   3.370   1.522   3.390
 2098SOL    HW2 8422   3.454   1.538   3.432
 2098SOL    HW3 8423   3.307   1.572   3.442
 2098SOL    MW4 8424   3.373   1.531   3.403
 2099SOL     OW 8425   3.162   1.672   3.542
 2099SOL    HW2 8426   3.146   1.751   3.491
 2099SOL    HW3 8427   3.095   1.610   3.512
 2099SOL    MW4 8428   3.151   1.674   3.532
 2100SOL     OW 8429   3.105   1.914   3.437
 2100SOL    HW2 8430   3.042   1.986   3.446
 2100SOL    HW3 8431   3.113   1.902   3.342
 2100SOL    MW4 8432   3.098   1.922   3.426
 2101SOL     OW 8433   3.366   2.024   3.457
 2101SOL    HW2 8434   3.353   2.116   3.432
 2101SOL    HW3 8435   3.279   1.986   3.453
 2101SOL    MW4 8436   3.353   2.031   3.454
 2102SOL     OW 8437   3.355   2.304   3.390
 2102SOL    HW2 8438   3.443   2.335   3.414
 2102SOL    HW3 8439   3.296   2.356   3.444
 2102SOL    MW4 8440   3.359   2.315   3.400
 2103SOL     OW 8441   3.195   2.453   3.532
 2103SOL    HW2 8442   3.202   2.534   3.481
 2103SOL    HW3 8443   3.108   2.419   3.510
 2103SOL    MW4 8444   3.184   2.459   3.523
 2104SOL     OW 8445   3.193   2.686   3.395
 2104SOL    HW2 8446   3.263   2.752   3.396
 2104SOL    HW3 8447   3.114   2.735   3.419
 2104SOL    MW4 8448   3.192   2.701   3.399
 2105SOL     OW 8449   3.380   2.834   3.508
 2105SOL    HW2 8450   3.448   2.784   3.462
 2105SOL    HW3 8451   3.373   2.916   3.459
 2105SOL    MW4 8452   3.388   2.838   3.495
 2106SOL     OW 8453   3.386   3.085   3.377
 2106SOL    HW2 8454   3.458   3.121   3.429
 2106SOL    HW3 8455   3.308   3.132   3.406
 2106SOL    MW4 8456   3.385   3.096   3.387
 2107SOL     OW 8457   3.174   3.229   3.507
 2107SOL    HW2 8458   3.174   3.306   3.451
 2107SOL    HW3 8459   3.091   3.185   3.487
 2107SOL    MW4 8460   3.163   3.233   3.497
 2108SOL     OW 8461   3.173   3.485   3.357
 2108SOL    HW2 8462   3.087   3.506   3.392
 2108SOL    HW3 8463   3.161   3.483   3.262
 2108SOL    MW4 8464   3.160   3.487   3.349
 2109SOL     OW 8465   3.416   3.636   3.469
 2109SOL    HW2 8466   3.408   3.719   3.422
 2109SOL    HW3 8467   3.329   3.598   3.464
 2109SOL    MW4 8468   3.404   3.642   3.462
 2110SOL     OW 8469   3.360   3.880   3.343
 2110SOL    HW2 8470   3.432   3.930   3.382
 2110SOL    HW3 8471   3.282   3.914   3.387
 2110SOL    MW4 8472   3.359   3.891   3.354
 2111SOL     OW 8473   3.125   3.976   3.452
 2111SOL    HW2 8474   3.126   3.972   3.547
 2111SOL    HW3 8475   3.138   4.069   3.432
 2111SOL    MW4 8476   3.127   3.988   3.462
 2112SOL     OW 8477   3.158   4.258   3.408
 2112SOL    HW2 8478   3.238   4.298   3.441
 2112SOL    HW3 8479   3.087   4.304   3.453
 2112SOL    MW4 8480   3.159   4.269   3.418
 2113SOL     OW 8481   3.402   4.387   3.479
 2113SOL    HW2 8482   3.396   4.369   3.573
 2113SOL    HW3 8483   3.379   4.480   3.471
 2113SOL    MW4 8484   3.398   4.397   3.491
 2114SOL     OW 8485   3.815   0.021   3.417
 2114SOL    HW2 8486   3.737   0.073   3.434
 2114SOL    HW3 8487   3.822   0.018   3.321
 2114SOL    MW4 8488   3.806   0.027   3.406
 2115SOL     OW 8489   3.586   0.144   3.530
 2115SOL    HW2 8490   3.588   0.234   3.496
 2115SOL    HW3 8491   3.508   0.105   3.491
 2115SOL    MW4 8492   3.576   0.151   3.520
 2116SOL     OW 8493   3.616   0.390   3.417
 2116SOL    HW2 8494   3.695   0.432   3.450
 2116SOL    HW3 8495   3.545   0.433   3.465
 2116SOL    MW4 8496   3.617   0.401   3.428
 2117SOL     OW 8497   3.836   0.523   3.519
 2117SOL    HW2 8498   3.833   0.516   3.615
 2117SOL    HW3 8499   3.916   0.477   3.495
 2117SOL    MW4 8500   3.846   0.516   3.529
 2118SOL     OW 8501   3.885   0.781   3.432
 2118SOL    HW2 8502   3.976   0.811   3.445
 2118SOL    HW3 8503   3.888   0.687   3.450
 2118SOL    MW4 8504   3.898   0.773   3.436
 2119SOL     OW 8505   3.645   0.896   3.492
 2119SOL    HW2 8506   3.649   0.906   3.587
 2119SOL    HW3 8507   3.734   0.875   3.466
 2119SOL    MW4 8508   3.657   0.895   3.501
 2120SOL     OW 8509   3.601   1.142   3.382
 2120SOL    HW2 8510   3.606   1.062   3.434
 2120SOL    HW3 8511   3.585   1.111   3.293
 2120SOL    MW4 8512   3.599   1.128   3.377
 2121SOL     OW 8513   3.847   1.245   3.481
 2121SOL    HW2 8514   3.833   1.259   3.575
 2121SOL    HW3 8515   3.761   1.221   3.447
 2121SOL    MW4 8516   3.834   1.244   3.489
 2122SOL     OW 8517   3.830   1.512   3.388
 2122SOL    HW2 8518   3.889   1.564   3.442
 2122SOL    HW3 8519   3.841   1.422   3.419
 2122SOL    MW4 8520   3.839   1.507   3.399
 2123SOL     OW 8521   3.602   1.613   3.514
 2123SOL    HW2 8522   3.589   1.700   3.476
 2123SOL    HW3 8523   3.683   1.581   3.474
 2123SOL    MW4 8524   3.611   1.621   3.504
 2124SOL     OW 8525   3.601   1.859   3.385
 2124SOL    HW2 8526   3.668   1.921   3.415
 2124SOL    HW3 8527   3.518   1.902   3.406
 2124SOL    MW4 8528   3.599   1.873   3.392
 2125SOL     OW 8529   3.788   2.049   3.495
 2125SOL    HW2 8530   3.752   2.041   3.583
 2125SOL    HW3 8531   3.866   1.993   3.495
 2125SOL    MW4 8532   3.794   2.041   3.506
 2126SOL     OW 8533   3.822   2.316   3.390
 2126SOL    HW2 8534   3.896   2.353   3.438
 2126SOL    HW3 8535   3.822   2.223   3.414
 2126SOL    MW4 8536   3.832   2.309   3.399
 2127SOL     OW 8537   3.577   2.435   3.493
 2127SOL    HW2 8538   3.585   2.519   3.448
 2127SOL    HW3 8539   3.667   2.402   3.497
 2127SOL    MW4 8540   3.590   2.442   3.487
 2128SOL     OW 8541   3.561   2.677   3.369
 2128SOL    HW2 8542   3.640   2.722   3.401
 2128SOL    HW3 8543   3.570   2.679   3.274
 2128SOL    MW4 8544   3.573   2.684   3.361
 2129SOL     OW 8545   3.805   2.792   3.494
 2129SOL    HW2 8546   3.805   2.787   3.589
 2129SOL    HW3 8547   3.797   2.885   3.474
 2129SOL    MW4 8548   3.804   2.804   3.504
 2130SOL     OW 8549   3.804   3.054   3.405
 2130SOL    HW2 8550   3.889   3.083   3.439
 2130SOL    HW3 8551   3.814   3.056   3.310
 2130SOL    MW4 8552   3.816   3.058   3.397
 2131SOL     OW 8553   3.600   3.194   3.525
 2131SOL    HW2 8554   3.620   3.279   3.485
 2131SOL    HW3 8555   3.672   3.138   3.497
 2131SOL    MW4 8556   3.612   3.198   3.516
 2132SOL     OW 8557   3.617   3.454   3.388
 2132SOL    HW2 8558   3.549   3.518   3.408
 2132SOL    HW3 8559   3.614   3.446   3.292
 2132SOL    MW4 8560   3.608   3.461   3.378
 2133SOL     OW 8561   3.833   3.601   3.490
 2133SOL    HW2 8562   3.827   3.613   3.585
 2133SOL    HW3 8563   3.754   3.552   3.466
 2133SOL    MW4 8564   3.822   3.596   3.499
 2134SOL     OW 8565   3.821   3.864   3.397
 2134SOL    HW2 8566   3.740   3.905   3.427
 2134SOL    HW3 8567   3.821   3.778   3.440
 2134SOL    MW4 8568   3.810   3.858   3.406
 2135SOL     OW 8569   3.597   4.003   3.489
 2135SOL    HW2 8570   3.602   4.011   3.584
 2135SOL    HW3 8571   3.606   4.092   3.457
 2135SOL    MW4 8572   3.599   4.016   3.497
 2136SOL     OW 8573   3.630   4.266   3.367
 2136SOL    HW2 8574   3.552   4.306   3.405
 2136SOL    HW3 8575   3.611   4.261   3.273
 2136SOL    MW4 8576   3.617   4.270   3.360
 2137SOL     OW 8577   3.868   4.411   3.450
 2137SOL    HW2 8578   3.782   4.370   3.440
 2137SOL    HW3 8579   3.853   4.503   3.427
 2137SOL    MW4 8580   3.855   4.418   3.445
 2138SOL     OW 8581   4.251   0.016   3.391
 2138SOL    HW2 8582   4.254  -0.074   3.426
 2138SOL    HW3 8583   4.330   0.057   3.425
 2138SOL    MW4 8584   4.262   0.009   3.400
 2139SOL     OW 8585   4.035   0.126   3.532
 2139SOL    HW2 8586   4.108   0.077   3.495
 2139SOL    HW3 8587   3.957   0.082   3.498
 2139SOL    MW4 8588   4.034   0.114   3.523
 2140SOL     OW 8589   4.059   0.396   3.440
 2140SOL    HW2 8590   4.042   0.302   3.452
 2140SOL    HW3 8591   4.062   0.407   3.345
 2140SOL    MW4 8592   4.057   0.385   3.429
 2141SOL     OW 8593   4.301   0.468   3.525
 2141SOL    HW2 8594   4.323   0.555   3.493
 2141SOL    HW3 8595   4.215   0.449   3.489
 2141SOL    MW4 8596   4.293   0.477   3.516
 2142SOL     OW 8597   4.374   0.725   3.428
 2142SOL    HW2 8598   4.442   0.791   3.444
 2142SOL    HW3 8599   4.369   0.720   3.332
 2142SOL    MW4 8600   4.383   0.733   3.417
 2143SOL     OW 8601   4.133   0.879   3.493
 2143SOL    HW2 8602   4.123   0.972   3.473
 2143SOL    HW3 8603   4.221   0.857   3.462
 2143SOL    MW4 8604   4.143   0.889   3.486
 2144SOL     OW 8605   4.104   1.144   3.423
 2144SOL    HW2 8606   4.167   1.198   3.472
 2144SOL    HW3 8607   4.018   1.177   3.450
 2144SOL    MW4 8608   4.101   1.156   3.433
 2145SOL     OW 8609   4.321   1.303   3.543
 2145SOL    HW2 8610   4.308   1.387   3.501
 2145SOL    HW3 8611   4.389   1.260   3.491
 2145SOL    MW4 8612   4.328   1.308   3.531
 2146SOL     OW 8613   4.266   1.575   3.411
 2146SOL    HW2 8614   4.184   1.606   3.450
 2146SOL    HW3 8615   4.249   1.576   3.317
 2146SOL    MW4 8616   4.253   1.579   3.404
 2147SOL     OW 8617   4.031   1.666   3.505
 2147SOL    HW2 8618   4.042   1.662   3.600
 2147SOL    HW3 8619   4.027   1.760   3.485
 2147SOL    MW4 8620   4.032   1.678   3.515
 2148SOL     OW 8621   4.030   1.928   3.433
 2148SOL    HW2 8622   4.116   1.963   3.459
 2148SOL    HW3 8623   4.034   1.923   3.337
 2148SOL    MW4 8624   4.042   1.932   3.424
 2149SOL     OW 8625   4.302   2.057   3.532
 2149SOL    HW2 8626   4.313   2.148   3.506
 2149SOL    HW3 8627   4.379   2.012   3.498
 2149SOL    MW4 8628   4.313   2.063   3.524
 2150SOL     OW 8629   4.282   2.340   3.407
 2150SOL    HW2 8630   4.203   2.387   3.435
 2150SOL    HW3 8631   4.269   2.324   3.314
 2150SOL    MW4 8632   4.269   2.344   3.399
 2151SOL     OW 8633   4.051   2.453   3.491
 2151SOL    HW2 8634   4.052   2.464   3.586
 2151SOL    HW3 8635   4.045   2.542   3.457
 2151SOL    MW4 8636   4.050   2.466   3.499
 2152SOL     OW 8637   4.050   2.705   3.379
 2152SOL    HW2 8638   4.118   2.752   3.428
 2152SOL    HW3 8639   3.968   2.740   3.413
 2152SOL    MW4 8640   4.048   2.716   3.390
 2153SOL     OW 8641   4.265   2.796   3.544
 2153SOL    HW2 8642   4.277   2.796   3.639
 2153SOL    HW3 8643   4.343   2.752   3.510
 2153SOL    MW4 8644   4.277   2.791   3.552
 2154SOL     OW 8645   4.282   3.033   3.398
 2154SOL    HW2 8646   4.294   2.949   3.441
 2154SOL    HW3 8647   4.292   3.015   3.305
 2154SOL    MW4 8648   4.285   3.020   3.391
 2155SOL     OW 8649   4.073   3.162   3.511
 2155SOL    HW2 8650   4.089   3.251   3.479
 2155SOL    HW3 8651   4.152   3.113   3.484
 2155SOL    MW4 8652   4.086   3.167   3.503
 2156SOL     OW 8653   4.082   3.437   3.426
 2156SOL    HW2 8654   4.153   3.497   3.448
 2156SOL    HW3 8655   4.002   3.487   3.441
 2156SOL    MW4 8656   4.081   3.451   3.431
 2157SOL     OW 8657   4.279   3.623   3.490
 2157SOL    HW2 8658   4.279   3.611   3.585
 2157SOL    HW3 8659   4.268   3.717   3.477
 2157SOL    MW4 8660   4.277   3.634   3.501
 2158SOL     OW 8661   4.248   3.887   3.462
 2158SOL    HW2 8662   4.330   3.924   3.495
 2158SOL    HW3 8663   4.256   3.892   3.367
 2158SOL    MW4 8664   4.260   3.893   3.454
 2159SOL     OW 8665   4.016   4.039   3.538
 2159SOL    HW2 8666   4.102   3.999   3.532
 2159SOL    HW3 8667   3.963   3.993   3.474
 2159SOL    MW4 8668   4.020   4.028   3.529
 2160SOL     OW 8669   4.088   4.269   3.408
 2160SOL    HW2 8670   4.067   4.190   3.458
 2160SOL    HW3 8671   4.010   4.323   3.413
 2160SOL    MW4 8672   4.075   4.265   3.415
 2161SOL     OW 8673   4.309   4.388   3.523
 2161SOL    HW2 8674   4.305   4.392   3.618
 2161SOL    HW3 8675   4.227   4.345   3.497
 2161SOL    MW4 8676   4.297   4.383   3.532
 2162SOL     OW 8677   0.234   4.664   3.851
 2162SOL    HW2 8678   0.233   4.675   3.947
 2162SOL    HW3 8679   0.150   4.700   3.822
 2162SOL    MW4 8680   0.223   4.670   3.860
 2163SOL     OW 8681   4.464   0.122   3.802
 2163SOL    HW2 8682   4.478   0.214   3.823
 2163SOL    HW3 8683   4.450   0.121   3.708
 2163SOL    MW4 8684   4.464   0.134   3.792
 2164SOL     OW 8685   0.011   0.376   3.878
 2164SOL    HW2 8686  -0.059   0.435   3.850
 2164SOL    HW3 8687   0.091   0.414   3.841
 2164SOL    MW4 8688   0.012   0.389   3.869
 2165SOL     OW 8689   0.255   0.488   3.760
 2165SOL    HW2 8690   0.243   0.580   3.785
 2165SOL    HW3 8691   0.263   0.490   3.665
 2165SOL    MW4 8692   0.255   0.501   3.751
 2166SOL     OW 8693   0.228   0.759   3.882
 2166SOL    HW2 8694   0.220   0.757   3.978
 2166SOL    HW3 8695   0.155   0.812   3.852
 2166SOL    MW4 8696   0.218   0.765   3.891
 2167SOL     OW 8697   0.016   0.914   3.754
 2167SOL    HW2 8698  -0.065   0.870   3.783
 2167SOL    HW3 8699   0.015   0.998   3.799
 2167SOL    MW4 8700   0.005   0.919   3.764
 2168SOL     OW 8701   0.046   1.145   3.885
 2168SOL    HW2 8702  -0.025   1.209   3.889
 2168SOL    HW3 8703   0.124   1.197   3.863
 2168SOL    MW4 8704   0.047   1.160   3.883
 2169SOL     OW 8705   0.279   1.289   3.779
 2169SOL    HW2 8706   0.237   1.371   3.804
 2169SOL    HW3 8707   0.265   1.282   3.685
 2169SOL    MW4 8708   0.272   1.299   3.770
 2170SOL     OW 8709   0.219   1.537   3.889
 2170SOL    HW2 8710   0.215   1.545   3.985
 2170SOL    HW3 8711   0.140   1.581   3.858
 2170SOL    MW4 8712   0.208   1.544   3.898
 2171SOL     OW 8713   4.484   1.659   3.782
 2171SOL    HW2 8714   4.477   1.753   3.801
 2171SOL    HW3 8715   4.484   1.655   3.686
 2171SOL    MW4 8716   4.483   1.671   3.771
 2172SOL     OW 8717   0.038   1.954   3.850
 2172SOL    HW2 8718   0.043   1.925   3.941
 2172SOL    HW3 8719  -0.050   1.992   3.842
 2172SOL    MW4 8720   0.027   1.955   3.861
 2173SOL     OW 8721   0.257   2.091   3.791
 2173SOL    HW2 8722   0.248   2.177   3.830
 2173SOL    HW3 8723   0.185   2.040   3.827
 2173SOL    MW4 8724   0.246   2.095   3.801
 2174SOL     OW 8725   0.238   2.337   3.904
 2174SOL    HW2 8726   0.238   2.332   3.999
 2174SOL    HW3 8727   0.149   2.364   3.881
 2174SOL    MW4 8728   0.226   2.340   3.913
 2175SOL     OW 8729   0.005   2.414   3.801
 2175SOL    HW2 8730  -0.080   2.386   3.835
 2175SOL    HW3 8731   0.017   2.502   3.834
 2175SOL    MW4 8732  -0.005   2.422   3.810
 2176SOL     OW 8733   0.022   2.667   3.902
 2176SOL    HW2 8734   0.030   2.683   3.996
 2176SOL    HW3 8735   0.098   2.712   3.864
 2176SOL    MW4 8736   0.033   2.675   3.910
 2177SOL     OW 8737   0.255   2.791   3.804
 2177SOL    HW2 8738   0.330   2.742   3.837
 2177SOL    HW3 8739   0.259   2.780   3.709
 2177SOL    MW4 8740   0.265   2.783   3.796
 2178SOL     OW 8741   0.234   3.055   3.870
 2178SOL    HW2 8742   0.242   3.056   3.966
 2178SOL    HW3 8743   0.243   2.962   3.847
 2178SOL    MW4 8744   0.237   3.043   3.880
 2179SOL     OW 8745   0.056   3.241   3.772
 2179SOL    HW2 8746   0.122   3.183   3.809
 2179SOL    HW3 8747   0.051   3.217   3.679
 2179SOL    MW4 8748   0.064   3.230   3.764
 2180SOL     OW 8749   0.019   3.508   3.852
 2180SOL    HW2 8750   0.102   3.549   3.828
 2180SOL    HW3 8751   0.026   3.418   3.822
 2180SOL    MW4 8752   0.031   3.502   3.845
 2181SOL     OW 8753   0.250   3.613   3.756
 2181SOL    HW2 8754   0.329   3.571   3.790
 2181SOL    HW3 8755   0.247   3.698   3.800
 2181SOL    MW4 8756   0.260   3.618   3.766
 2182SOL     OW 8757   0.223   3.849   3.907
 2182SOL    HW2 8758   0.236   3.873   3.998
 2182SOL    HW3 8759   0.290   3.898   3.859
 2182SOL    MW4 8760   0.233   3.859   3.912
 2183SOL     OW 8761   0.030   4.003   3.790
 2183SOL    HW2 8762  -0.051   3.966   3.827
 2183SOL    HW3 8763   0.099   3.946   3.824
 2183SOL    MW4 8764   0.028   3.990   3.800
 2184SOL     OW 8765   0.029   4.254   3.952
 2184SOL    HW2 8766   0.108   4.304   3.934
 2184SOL    HW3 8767   0.036   4.177   3.895
 2184SOL    MW4 8768   0.040   4.250   3.942
 2185SOL     OW 8769   0.218   4.401   3.802
 2185SOL    HW2 8770   0.302   4.366   3.831
 2185SOL    HW3 8771   0.224   4.495   3.817
 2185SOL    MW4 8772   0.230   4.409   3.808
 2186SOL     OW 8773   0.692   4.621   3.885
 2186SOL    HW2 8774   0.703   4.539   3.836
 2186SOL    HW3 8775   0.606   4.653   3.860
 2186SOL    MW4 8776   0.682   4.614   3.875
 2187SOL     OW 8777   0.469   0.077   3.760
 2187SOL    HW2 8778   0.482   0.167   3.791
 2187SOL    HW3 8779   0.386   0.050   3.799
 2187SOL    MW4 8780   0.460   0.085   3.769
 2188SOL     OW 8781   0.490   0.351   3.830
 2188SOL    HW2 8782   0.555   0.420   3.815
 2188SOL    HW3 8783   0.409   0.386   3.793
 2188SOL    MW4 8784   0.488   0.364   3.823
 2189SOL     OW 8785   0.681   0.537   3.797
 2189SOL    HW2 8786   0.749   0.490   3.846
 2189SOL    HW3 8787   0.682   0.625   3.835
 2189SOL    MW4 8788   0.690   0.542   3.809
 2190SOL     OW 8789   0.689   0.793   3.915
 2190SOL    HW2 8790   0.761   0.834   3.867
 2190SOL    HW3 8791   0.610   0.836   3.883
 2190SOL    MW4 8792   0.688   0.804   3.905
 2191SOL     OW 8793   0.455   0.890   3.788
 2191SOL    HW2 8794   0.455   0.977   3.828
 2191SOL    HW3 8795   0.383   0.844   3.832
 2191SOL    MW4 8796   0.445   0.895   3.799
 2192SOL     OW 8797   0.480   1.149   3.911
 2192SOL    HW2 8798   0.556   1.199   3.882
 2192SOL    HW3 8799   0.405   1.197   3.874
 2192SOL    MW4 8800   0.480   1.162   3.902
 2193SOL     OW 8801   0.696   1.287   3.787
 2193SOL    HW2 8802   0.785   1.261   3.811
 2193SOL    HW3 8803   0.694   1.283   3.691
 2193SOL    MW4 8804   0.707   1.283   3.778
 2194SOL     OW 8805   0.672   1.539   3.876
 2194SOL    HW2 8806   0.741   1.590   3.833
 2194SOL    HW3 8807   0.675   1.453   3.834
 2194SOL    MW4 8808   0.681   1.534   3.864
 2195SOL     OW 8809   0.433   1.674   3.794
 2195SOL    HW2 8810   0.514   1.626   3.817
 2195SOL    HW3 8811   0.363   1.623   3.836
 2195SOL    MW4 8812   0.435   1.661   3.803
 2196SOL     OW 8813   0.446   1.931   3.910
 2196SOL    HW2 8814   0.449   1.849   3.860
 2196SOL    HW3 8815   0.373   1.980   3.871
 2196SOL    MW4 8816   0.437   1.926   3.898
 2197SOL     OW 8817   0.655   2.024   3.772
 2197SOL    HW2 8818   0.670   2.106   3.818
 2197SOL    HW3 8819   0.580   1.985   3.816
 2197SOL    MW4 8820   0.647   2.029   3.784
 2198SOL     OW 8821   0.713   2.283   3.893
 2198SOL    HW2 8822   0.790   2.325   3.856
 2198SOL    HW3 8823   0.640   2.340   3.866
 2198SOL    MW4 8824   0.713   2.296   3.884
 2199SOL     OW 8825   0.475   2.425   3.784
 2199SOL    HW2 8826   0.387   2.403   3.813
 2199SOL    HW3 8827   0.469   2.429   3.689
 2199SOL    MW4 8828   0.463   2.423   3.775
 2200SOL     OW 8829   0.489   2.673   3.904
 2200SOL    HW2 8830   0.553   2.723   3.853
 2200SOL    HW3 8831   0.489   2.586   3.863
 2200SOL    MW4 8832   0.498   2.668   3.892
 2201SOL     OW 8833   0.697   2.825   3.802
 2201SOL    HW2 8834   0.772   2.766   3.815
 2201SOL    HW3 8835   0.697   2.842   3.708
 2201SOL    MW4 8836   0.707   2.819   3.791
 2202SOL     OW 8837   0.696   3.082   3.898
 2202SOL    HW2 8838   0.708   3.074   3.993
 2202SOL    HW3 8839   0.711   2.993   3.864
 2202SOL    MW4 8840   0.700   3.069   3.906
 2203SOL     OW 8841   0.463   3.214   3.801
 2203SOL    HW2 8842   0.539   3.163   3.829
 2203SOL    HW3 8843   0.388   3.165   3.834
 2203SOL    MW4 8844   0.463   3.201   3.809
 2204SOL     OW 8845   0.463   3.476   3.873
 2204SOL    HW2 8846   0.543   3.519   3.844
 2204SOL    HW3 8847   0.476   3.384   3.849
 2204SOL    MW4 8848   0.475   3.469   3.866
 2205SOL     OW 8849   0.674   3.601   3.740
 2205SOL    HW2 8850   0.692   3.690   3.769
 2205SOL    HW3 8851   0.642   3.611   3.650
 2205SOL    MW4 8852   0.672   3.614   3.732
 2206SOL     OW 8853   0.670   3.873   3.855
 2206SOL    HW2 8854   0.696   3.886   3.946
 2206SOL    HW3 8855   0.741   3.913   3.804
 2206SOL    MW4 8856   0.683   3.880   3.860
 2207SOL     OW 8857   0.434   4.000   3.774
 2207SOL    HW2 8858   0.512   3.951   3.801
 2207SOL    HW3 8859   0.426   3.983   3.680
 2207SOL    MW4 8860   0.443   3.991   3.765
 2208SOL     OW 8861   0.474   4.268   3.842
 2208SOL    HW2 8862   0.556   4.305   3.809
 2208SOL    HW3 8863   0.472   4.180   3.806
 2208SOL    MW4 8864   0.484   4.261   3.833
 2209SOL     OW 8865   0.724   4.376   3.782
 2209SOL    HW2 8866   0.795   4.327   3.822
 2209SOL    HW3 8867   0.744   4.374   3.688
 2209SOL    MW4 8868   0.736   4.370   3.775
 2210SOL     OW 8869   1.107   0.038   3.912
 2210SOL    HW2 8870   1.171   0.096   3.871
 2210SOL    HW3 8871   1.116  -0.045   3.864
 2210SOL    MW4 8872   1.117   0.034   3.900
 2211SOL     OW 8873   0.875   0.135   3.780
 2211SOL    HW2 8874   0.957   0.101   3.816
 2211SOL    HW3 8875   0.810   0.068   3.801
 2211SOL    MW4 8876   0.877   0.121   3.788
 2212SOL     OW 8877   0.869   0.382   3.929
 2212SOL    HW2 8878   0.881   0.363   4.022
 2212SOL    HW3 8879   0.866   0.296   3.887
 2212SOL    MW4 8880   0.870   0.369   3.935
 2213SOL     OW 8881   1.074   0.557   3.773
 2213SOL    HW2 8882   1.159   0.515   3.790
 2213SOL    HW3 8883   1.013   0.509   3.828
 2213SOL    MW4 8884   1.077   0.545   3.782
 2214SOL     OW 8885   1.170   0.766   3.888
 2214SOL    HW2 8886   1.179   0.730   3.977
 2214SOL    HW3 8887   1.128   0.695   3.839
 2214SOL    MW4 8888   1.166   0.752   3.893
 2215SOL     OW 8889   0.952   0.903   3.807
 2215SOL    HW2 8890   1.030   0.864   3.845
 2215SOL    HW3 8891   0.962   0.890   3.713
 2215SOL    MW4 8892   0.963   0.896   3.800
 2216SOL     OW 8893   0.940   1.170   3.891
 2216SOL    HW2 8894   0.928   1.159   3.985
 2216SOL    HW3 8895   0.945   1.081   3.856
 2216SOL    MW4 8896   0.939   1.157   3.899
 2217SOL     OW 8897   1.159   1.302   3.763
 2217SOL    HW2 8898   1.166   1.392   3.795
 2217SOL    HW3 8899   1.094   1.261   3.821
 2217SOL    MW4 8900   1.151   1.308   3.775
 2218SOL     OW 8901   1.120   1.559   3.860
 2218SOL    HW2 8902   1.122   1.558   3.956
 2218SOL    HW3 8903   1.199   1.606   3.835
 2218SOL    MW4 8904   1.130   1.565   3.869
 2219SOL     OW 8905   0.897   1.646   3.733
 2219SOL    HW2 8906   0.962   1.586   3.769
 2219SOL    HW3 8907   0.902   1.631   3.638
 2219SOL    MW4 8908   0.906   1.636   3.725
 2220SOL     OW 8909   0.919   1.902   3.883
 2220SOL    HW2 8910   0.931   1.818   3.840
 2220SOL    HW3 8911   0.832   1.932   3.854
 2220SOL    MW4 8912   0.909   1.895   3.874
 2221SOL     OW 8913   1.159   2.013   3.762
 2221SOL    HW2 8914   1.077   1.975   3.792
 2221SOL    HW3 8915   1.143   2.032   3.669
 2221SOL    MW4 8916   1.146   2.011   3.753
 2222SOL     OW 8917   1.155   2.311   3.859
 2222SOL    HW2 8918   1.119   2.322   3.947
 2222SOL    HW3 8919   1.158   2.216   3.847
 2222SOL    MW4 8920   1.151   2.300   3.869
 2223SOL     OW 8921   0.922   2.414   3.763
 2223SOL    HW2 8922   0.926   2.503   3.798
 2223SOL    HW3 8923   1.005   2.374   3.788
 2223SOL    MW4 8924   0.933   2.420   3.771
 2224SOL     OW 8925   0.913   2.667   3.829
 2224SOL    HW2 8926   0.901   2.654   3.923
 2224SOL    HW3 8927   0.986   2.729   3.822
 2224SOL    MW4 8928   0.921   2.673   3.840
 2225SOL     OW 8929   1.121   2.844   3.775
 2225SOL    HW2 8930   1.189   2.794   3.820
 2225SOL    HW3 8931   1.132   2.934   3.807
 2225SOL    MW4 8932   1.131   2.850   3.785
 2226SOL     OW 8933   1.124   3.122   3.861
 2226SOL    HW2 8934   1.191   3.171   3.812
 2226SOL    HW3 8935   1.041   3.165   3.838
 2226SOL    MW4 8936   1.122   3.134   3.852
 2227SOL     OW 8937   0.897   3.231   3.787
 2227SOL    HW2 8938   0.828   3.181   3.830
 2227SOL    HW3 8939   0.893   3.203   3.695
 2227SOL    MW4 8940   0.888   3.220   3.780
 2228SOL     OW 8941   0.907   3.504   3.880
 2228SOL    HW2 8942   0.898   3.416   3.842
 2228SOL    HW3 8943   0.820   3.542   3.873
 2228SOL    MW4 8944   0.894   3.497   3.874
 2229SOL     OW 8945   1.135   3.636   3.783
 2229SOL    HW2 8946   1.132   3.727   3.811
 2229SOL    HW3 8947   1.053   3.598   3.817
 2229SOL    MW4 8948   1.124   3.643   3.791
 2230SOL     OW 8949   1.136   3.897   3.861
 2230SOL    HW2 8950   1.144   3.909   3.956
 2230SOL    HW3 8951   1.215   3.937   3.825
 2230SOL    MW4 8952   1.148   3.904   3.869
 2231SOL     OW 8953   0.899   4.026   3.797
 2231SOL    HW2 8954   0.976   3.973   3.818
 2231SOL    HW3 8955   0.895   4.025   3.701
 2231SOL    MW4 8956   0.909   4.019   3.787
 2232SOL     OW 8957   0.961   4.288   3.899
 2232SOL    HW2 8958   0.964   4.287   3.995
 2232SOL    HW3 8959   0.942   4.197   3.875
 2232SOL    MW4 8960   0.959   4.276   3.908
 2233SOL     OW 8961   1.139   4.455   3.786
 2233SOL    HW2 8962   1.090   4.387   3.832
 2233SOL    HW3 8963   1.123   4.437   3.693
 2233SOL    MW4 8964   1.131   4.444   3.780
 2234SOL     OW 8965   1.547   0.022   3.912
 2234SOL    HW2 8966   1.561   0.025   4.007
 2234SOL    HW3 8967   1.552  -0.071   3.890
 2234SOL    MW4 8968   1.549   0.010   3.922
 2235SOL     OW 8969   1.324   0.129   3.758
 2235SOL    HW2 8970   1.341   0.223   3.764
 2235SOL    HW3 8971   1.385   0.090   3.820
 2235SOL    MW4 8972   1.334   0.136   3.767
 2236SOL     OW 8973   1.335   0.395   3.819
 2236SOL    HW2 8974   1.347   0.354   3.904
 2236SOL    HW3 8975   1.405   0.460   3.813
 2236SOL    MW4 8976   1.346   0.398   3.829
 2237SOL     OW 8977   1.552   0.552   3.775
 2237SOL    HW2 8978   1.633   0.511   3.807
 2237SOL    HW3 8979   1.559   0.643   3.804
 2237SOL    MW4 8980   1.564   0.558   3.783
 2238SOL     OW 8981   1.563   0.800   3.886
 2238SOL    HW2 8982   1.649   0.837   3.868
 2238SOL    HW3 8983   1.502   0.857   3.839
 2238SOL    MW4 8984   1.566   0.812   3.877
 2239SOL     OW 8985   1.363   0.948   3.754
 2239SOL    HW2 8986   1.359   1.035   3.794
 2239SOL    HW3 8987   1.296   0.898   3.799
 2239SOL    MW4 8988   1.354   0.953   3.765
 2240SOL     OW 8989   1.368   1.184   3.894
 2240SOL    HW2 8990   1.450   1.228   3.871
 2240SOL    HW3 8991   1.302   1.227   3.839
 2240SOL    MW4 8992   1.370   1.196   3.884
 2241SOL     OW 8993   1.623   1.253   3.821
 2241SOL    HW2 8994   1.704   1.219   3.859
 2241SOL    HW3 8995   1.622   1.346   3.845
 2241SOL    MW4 8996   1.633   1.261   3.829
 2242SOL     OW 8997   1.559   1.523   3.840
 2242SOL    HW2 8998   1.555   1.518   3.936
 2242SOL    HW3 8999   1.640   1.570   3.822
 2242SOL    MW4 9000   1.569   1.528   3.850
 2243SOL     OW 9001   1.336   1.679   3.756
 2243SOL    HW2 9002   1.357   1.758   3.804
 2243SOL    HW3 9003   1.410   1.621   3.772
 2243SOL    MW4 9004   1.348   1.682   3.764
 2244SOL     OW 9005   1.383   1.925   3.893
 2244SOL    HW2 9006   1.366   1.917   3.987
 2244SOL    HW3 9007   1.298   1.948   3.856
 2244SOL    MW4 9008   1.369   1.927   3.901
 2245SOL     OW 9009   1.607   2.039   3.801
 2245SOL    HW2 9010   1.524   2.005   3.833
 2245SOL    HW3 9011   1.594   2.052   3.707
 2245SOL    MW4 9012   1.595   2.036   3.793
 2246SOL     OW 9013   1.618   2.321   3.895
 2246SOL    HW2 9014   1.695   2.353   3.848
 2246SOL    HW3 9015   1.620   2.226   3.883
 2246SOL    MW4 9016   1.629   2.313   3.887
 2247SOL     OW 9017   1.386   2.439   3.785
 2247SOL    HW2 9018   1.459   2.401   3.834
 2247SOL    HW3 9019   1.309   2.391   3.816
 2247SOL    MW4 9020   1.385   2.427   3.796
 2248SOL     OW 9021   1.340   2.700   3.874
 2248SOL    HW2 9022   1.352   2.701   3.969
 2248SOL    HW3 9023   1.349   2.607   3.850
 2248SOL    MW4 9024   1.343   2.688   3.883
 2249SOL     OW 9025   1.560   2.833   3.785
 2249SOL    HW2 9026   1.482   2.787   3.816
 2249SOL    HW3 9027   1.570   2.805   3.694
 2249SOL    MW4 9028   1.551   2.823   3.777
 2250SOL     OW 9029   1.543   3.115   3.883
 2250SOL    HW2 9030   1.553   3.123   3.978
 2250SOL    HW3 9031   1.527   3.022   3.869
 2250SOL    MW4 9032   1.542   3.104   3.894
 2251SOL     OW 9033   1.348   3.269   3.750
 2251SOL    HW2 9034   1.345   3.353   3.795
 2251SOL    HW3 9035   1.415   3.218   3.796
 2251SOL    MW4 9036   1.356   3.273   3.762
 2252SOL     OW 9037   1.371   3.519   3.886
 2252SOL    HW2 9038   1.446   3.566   3.849
 2252SOL    HW3 9039   1.295   3.567   3.854
 2252SOL    MW4 9040   1.371   3.532   3.877
 2253SOL     OW 9041   1.592   3.646   3.765
 2253SOL    HW2 9042   1.671   3.609   3.805
 2253SOL    HW3 9043   1.591   3.737   3.794
 2253SOL    MW4 9044   1.603   3.653   3.774
 2254SOL     OW 9045   1.576   3.937   3.847
 2254SOL    HW2 9046   1.580   3.929   3.942
 2254SOL    HW3 9047   1.489   3.974   3.829
 2254SOL    MW4 9048   1.565   3.941   3.857
 2255SOL     OW 9049   1.343   4.056   3.753
 2255SOL    HW2 9050   1.333   4.144   3.789
 2255SOL    HW3 9051   1.314   4.064   3.662
 2255SOL    MW4 9052   1.338   4.069   3.746
 2256SOL     OW 9053   1.359   4.307   3.904
 2256SOL    HW2 9054   1.438   4.355   3.876
 2256SOL    HW3 9055   1.288   4.349   3.854
 2256SOL    MW4 9056   1.360   4.319   3.894
 2257SOL     OW 9057   1.562   4.437   3.811
 2257SOL    HW2 9058   1.639   4.390   3.844
 2257SOL    HW3 9059   1.568   4.429   3.716
 2257SOL    MW4 9060   1.573   4.430   3.803
 2258SOL     OW 9061   2.002   0.013   3.880
 2258SOL    HW2 9062   2.089   0.051   3.870
 2258SOL    HW3 9063   2.008  -0.073   3.838
 2258SOL    MW4 9064   2.014   0.006   3.873
 2259SOL     OW 9065   1.740   0.115   3.756
 2259SOL    HW2 9066   1.821   0.088   3.801
 2259SOL    HW3 9067   1.670   0.076   3.809
 2259SOL    MW4 9068   1.742   0.106   3.769
 2260SOL     OW 9069   1.763   0.382   3.841
 2260SOL    HW2 9070   1.783   0.385   3.935
 2260SOL    HW3 9071   1.738   0.290   3.826
 2260SOL    MW4 9072   1.763   0.370   3.852
 2261SOL     OW 9073   2.006   0.482   3.771
 2261SOL    HW2 9074   1.918   0.461   3.804
 2261SOL    HW3 9075   1.999   0.469   3.677
 2261SOL    MW4 9076   1.993   0.478   3.763
 2262SOL     OW 9077   2.007   0.746   3.863
 2262SOL    HW2 9078   2.010   0.747   3.959
 2262SOL    HW3 9079   2.007   0.653   3.840
 2262SOL    MW4 9080   2.007   0.734   3.873
 2263SOL     OW 9081   1.789   0.893   3.762
 2263SOL    HW2 9082   1.851   0.822   3.781
 2263SOL    HW3 9083   1.790   0.900   3.667
 2263SOL    MW4 9084   1.797   0.885   3.752
 2264SOL     OW 9085   1.861   1.126   3.883
 2264SOL    HW2 9086   1.829   1.110   3.972
 2264SOL    HW3 9087   1.852   1.042   3.839
 2264SOL    MW4 9088   1.856   1.113   3.889
 2265SOL     OW 9089   2.038   1.270   3.737
 2265SOL    HW2 9090   2.124   1.236   3.762
 2265SOL    HW3 9091   1.977   1.227   3.796
 2265SOL    MW4 9092   2.041   1.260   3.748
 2266SOL     OW 9093   2.026   1.524   3.851
 2266SOL    HW2 9094   1.943   1.565   3.827
 2266SOL    HW3 9095   2.022   1.436   3.812
 2266SOL    MW4 9096   2.015   1.518   3.843
 2267SOL     OW 9097   1.795   1.632   3.765
 2267SOL    HW2 9098   1.811   1.719   3.802
 2267SOL    HW3 9099   1.792   1.647   3.671
 2267SOL    MW4 9100   1.797   1.646   3.758
 2268SOL     OW 9101   1.810   1.878   3.878
 2268SOL    HW2 9102   1.814   1.891   3.973
 2268SOL    HW3 9103   1.739   1.937   3.850
 2268SOL    MW4 9104   1.801   1.888   3.887
 2269SOL     OW 9105   2.023   2.039   3.779
 2269SOL    HW2 9106   1.947   1.986   3.803
 2269SOL    HW3 9107   2.024   2.036   3.683
 2269SOL    MW4 9108   2.013   2.031   3.769
 2270SOL     OW 9109   2.087   2.299   3.843
 2270SOL    HW2 9110   2.008   2.352   3.831
 2270SOL    HW3 9111   2.058   2.209   3.833
 2270SOL    MW4 9112   2.073   2.294   3.840
 2271SOL     OW 9113   1.850   2.433   3.806
 2271SOL    HW2 9114   1.836   2.525   3.828
 2271SOL    HW3 9115   1.848   2.431   3.711
 2271SOL    MW4 9116   1.848   2.445   3.797
 2272SOL     OW 9117   1.782   2.699   3.878
 2272SOL    HW2 9118   1.784   2.721   3.971
 2272SOL    HW3 9119   1.712   2.754   3.842
 2272SOL    MW4 9120   1.773   2.709   3.885
 2273SOL     OW 9121   1.996   2.828   3.751
 2273SOL    HW2 9122   2.082   2.795   3.779
 2273SOL    HW3 9123   1.933   2.778   3.803
 2273SOL    MW4 9124   1.999   2.817   3.761
 2274SOL     OW 9125   2.007   3.098   3.811
 2274SOL    HW2 9126   2.008   3.009   3.776
 2274SOL    HW3 9127   2.090   3.136   3.785
 2274SOL    MW4 9128   2.018   3.091   3.803
 2275SOL     OW 9129   1.773   3.241   3.772
 2275SOL    HW2 9130   1.849   3.185   3.790
 2275SOL    HW3 9131   1.701   3.200   3.820
 2275SOL    MW4 9132   1.774   3.228   3.781
 2276SOL     OW 9133   1.803   3.497   3.914
 2276SOL    HW2 9134   1.883   3.536   3.879
 2276SOL    HW3 9135   1.796   3.413   3.868
 2276SOL    MW4 9136   1.813   3.491   3.903
 2277SOL     OW 9137   2.028   3.641   3.805
 2277SOL    HW2 9138   2.100   3.596   3.849
 2277SOL    HW3 9139   2.046   3.629   3.712
 2277SOL    MW4 9140   2.040   3.634   3.798
 2278SOL     OW 9141   2.021   3.911   3.866
 2278SOL    HW2 9142   2.102   3.949   3.833
 2278SOL    HW3 9143   2.023   3.820   3.837
 2278SOL    MW4 9144   2.032   3.904   3.858
 2279SOL     OW 9145   1.800   4.045   3.724
 2279SOL    HW2 9146   1.871   4.002   3.771
 2279SOL    HW3 9147   1.720   4.007   3.760
 2279SOL    MW4 9148   1.799   4.035   3.735
 2280SOL     OW 9149   1.779   4.281   3.884
 2280SOL    HW2 9150   1.852   4.333   3.852
 2280SOL    HW3 9151   1.776   4.206   3.825
 2280SOL    MW4 9152   1.788   4.278   3.872
 2281SOL     OW 9153   2.006   4.437   3.783
 2281SOL    HW2 9154   2.077   4.385   3.820
 2281SOL    HW3 9155   2.024   4.439   3.689
 2281SOL    MW4 9156   2.018   4.431   3.775
 2282SOL     OW 9157   2.494   4.609   3.808
 2282SOL    HW2 9158   2.481   4.623   3.902
 2282SOL    HW3 9159   2.569   4.664   3.786
 2282SOL    MW4 9160   2.502   4.618   3.818
 2283SOL     OW 9161   2.268   0.101   3.794
 2283SOL    HW2 9162   2.340   0.037   3.796
 2283SOL    HW3 9163   2.237   0.099   3.703
 2283SOL    MW4 9164   2.274   0.092   3.782
 2284SOL     OW 9165   2.214   0.351   3.911
 2284SOL    HW2 9166   2.213   0.268   3.865
 2284SOL    HW3 9167   2.140   0.400   3.874
 2284SOL    MW4 9168   2.204   0.347   3.900
 2285SOL     OW 9169   2.432   0.476   3.787
 2285SOL    HW2 9170   2.350   0.436   3.817
 2285SOL    HW3 9171   2.425   0.480   3.692
 2285SOL    MW4 9172   2.421   0.471   3.779
 2286SOL     OW 9173   2.454   0.737   3.868
 2286SOL    HW2 9174   2.366   0.773   3.853
 2286SOL    HW3 9175   2.448   0.646   3.838
 2286SOL    MW4 9176   2.441   0.730   3.862
 2287SOL     OW 9177   2.224   0.866   3.773
 2287SOL    HW2 9178   2.142   0.830   3.807
 2287SOL    HW3 9179   2.220   0.850   3.679
 2287SOL    MW4 9180   2.213   0.859   3.765
 2288SOL     OW 9181   2.270   1.151   3.833
 2288SOL    HW2 9182   2.260   1.151   3.928
 2288SOL    HW3 9183   2.252   1.061   3.806
 2288SOL    MW4 9184   2.266   1.139   3.842
 2289SOL     OW 9185   2.501   1.272   3.797
 2289SOL    HW2 9186   2.492   1.364   3.822
 2289SOL    HW3 9187   2.413   1.235   3.808
 2289SOL    MW4 9188   2.488   1.279   3.802
 2290SOL     OW 9189   2.480   1.540   3.888
 2290SOL    HW2 9190   2.559   1.587   3.859
 2290SOL    HW3 9191   2.408   1.585   3.844
 2290SOL    MW4 9192   2.481   1.552   3.878
 2291SOL     OW 9193   2.264   1.653   3.764
 2291SOL    HW2 9194   2.251   1.741   3.800
 2291SOL    HW3 9195   2.197   1.599   3.805
 2291SOL    MW4 9196   2.254   1.658   3.774
 2292SOL     OW 9197   2.238   1.904   3.915
 2292SOL    HW2 9198   2.212   1.902   4.007
 2292SOL    HW3 9199   2.166   1.949   3.871
 2292SOL    MW4 9200   2.225   1.909   3.922
 2293SOL     OW 9201   2.466   2.022   3.806
 2293SOL    HW2 9202   2.471   2.114   3.832
 2293SOL    HW3 9203   2.392   1.987   3.855
 2293SOL    MW4 9204   2.457   2.029   3.816
 2294SOL     OW 9205   2.463   2.300   3.864
 2294SOL    HW2 9206   2.543   2.348   3.845
 2294SOL    HW3 9207   2.398   2.335   3.803
 2294SOL    MW4 9208   2.465   2.311   3.854
 2295SOL     OW 9209   2.285   2.441   3.716
 2295SOL    HW2 9210   2.209   2.404   3.761
 2295SOL    HW3 9211   2.259   2.447   3.624
 2295SOL    MW4 9212   2.272   2.437   3.710
 2296SOL     OW 9213   2.243   2.729   3.834
 2296SOL    HW2 9214   2.242   2.724   3.930
 2296SOL    HW3 9215   2.274   2.643   3.806
 2296SOL    MW4 9216   2.247   2.717   3.843
 2297SOL     OW 9217   2.480   2.834   3.778
 2297SOL    HW2 9218   2.400   2.792   3.811
 2297SOL    HW3 9219   2.475   2.823   3.683
 2297SOL    MW4 9220   2.469   2.827   3.770
 2298SOL     OW 9221   2.435   3.096   3.841
 2298SOL    HW2 9222   2.429   3.087   3.937
 2298SOL    HW3 9223   2.425   3.006   3.809
 2298SOL    MW4 9224   2.433   3.083   3.850
 2299SOL     OW 9225   2.242   3.257   3.750
 2299SOL    HW2 9226   2.246   3.326   3.817
 2299SOL    HW3 9227   2.318   3.202   3.769
 2299SOL    MW4 9228   2.252   3.259   3.762
 2300SOL     OW 9229   2.233   3.489   3.923
 2300SOL    HW2 9230   2.236   3.483   4.018
 2300SOL    HW3 9231   2.319   3.523   3.898
 2300SOL    MW4 9232   2.244   3.492   3.932
 2301SOL     OW 9233   2.437   3.622   3.795
 2301SOL    HW2 9234   2.516   3.575   3.821
 2301SOL    HW3 9235   2.443   3.628   3.699
 2301SOL    MW4 9236   2.448   3.617   3.786
 2302SOL     OW 9237   2.478   3.885   3.882
 2302SOL    HW2 9238   2.547   3.916   3.824
 2302SOL    HW3 9239   2.465   3.793   3.857
 2302SOL    MW4 9240   2.485   3.877   3.871
 2303SOL     OW 9241   2.258   4.003   3.793
 2303SOL    HW2 9242   2.343   3.975   3.826
 2303SOL    HW3 9243   2.265   3.995   3.698
 2303SOL    MW4 9244   2.270   3.999   3.784
 2304SOL     OW 9245   2.226   4.294   3.863
 2304SOL    HW2 9246   2.216   4.299   3.958
 2304SOL    HW3 9247   2.221   4.201   3.843
 2304SOL    MW4 9248   2.224   4.283   3.873
 2305SOL     OW 9249   2.504   4.333   3.764
 2305SOL    HW2 9250   2.416   4.317   3.798
 2305SOL    HW3 9251   2.514   4.429   3.768
 2305SOL    MW4 9252   2.493   4.344   3.769
 2306SOL     OW 9253   2.933   4.656   3.883
 2306SOL    HW2 9254   2.922   4.659   3.978
 2306SOL    HW3 9255   3.015   4.703   3.867
 2306SOL    MW4 9256   2.943   4.662   3.893
 2307SOL     OW 9257   2.717   0.101   3.746
 2307SOL    HW2 9258   2.795   0.057   3.780
 2307SOL    HW3 9259   2.726   0.094   3.651
 2307SOL    MW4 9260   2.729   0.094   3.738
 2308SOL     OW 9261   2.679   0.365   3.864
 2308SOL    HW2 9262   2.692   0.276   3.831
 2308SOL    HW3 9263   2.590   0.388   3.837
 2308SOL    MW4 9264   2.669   0.356   3.856
 2309SOL     OW 9265   2.908   0.509   3.795
 2309SOL    HW2 9266   2.983   0.460   3.828
 2309SOL    HW3 9267   2.832   0.462   3.828
 2309SOL    MW4 9268   2.908   0.497   3.804
 2310SOL     OW 9269   2.932   0.768   3.899
 2310SOL    HW2 9270   3.026   0.786   3.892
 2310SOL    HW3 9271   2.923   0.677   3.870
 2310SOL    MW4 9272   2.943   0.758   3.894
 2311SOL     OW 9273   2.707   0.866   3.773
 2311SOL    HW2 9274   2.787   0.839   3.819
 2311SOL    HW3 9275   2.638   0.812   3.812
 2311SOL    MW4 9276   2.709   0.855   3.784
 2312SOL     OW 9277   2.732   1.111   3.869
 2312SOL    HW2 9278   2.707   1.023   3.841
 2312SOL    HW3 9279   2.655   1.165   3.851
 2312SOL    MW4 9280   2.719   1.106   3.863
 2313SOL     OW 9281   2.990   1.255   3.800
 2313SOL    HW2 9282   2.965   1.347   3.811
 2313SOL    HW3 9283   2.920   1.206   3.842
 2313SOL    MW4 9284   2.978   1.261   3.807
 2314SOL     OW 9285   2.980   1.553   3.833
 2314SOL    HW2 9286   2.980   1.512   3.919
 2314SOL    HW3 9287   3.058   1.608   3.832
 2314SOL    MW4 9288   2.990   1.555   3.844
 2315SOL     OW 9289   2.712   1.652   3.775
 2315SOL    HW2 9290   2.801   1.659   3.807
 2315SOL    HW3 9291   2.718   1.671   3.681
 2315SOL    MW4 9292   2.724   1.655   3.767
 2316SOL     OW 9293   2.689   1.896   3.881
 2316SOL    HW2 9294   2.699   1.810   3.840
 2316SOL    HW3 9295   2.604   1.927   3.851
 2316SOL    MW4 9296   2.679   1.888   3.872
 2317SOL     OW 9297   2.910   2.062   3.779
 2317SOL    HW2 9298   2.895   2.148   3.819
 2317SOL    HW3 9299   2.840   2.007   3.813
 2317SOL    MW4 9300   2.899   2.066   3.788
 2318SOL     OW 9301   2.874   2.326   3.881
 2318SOL    HW2 9302   2.877   2.328   3.977
 2318SOL    HW3 9303   2.953   2.371   3.853
 2318SOL    MW4 9304   2.885   2.332   3.890
 2319SOL     OW 9305   2.670   2.469   3.757
 2319SOL    HW2 9306   2.688   2.556   3.793
 2319SOL    HW3 9307   2.736   2.413   3.796
 2319SOL    MW4 9308   2.681   2.473   3.767
 2320SOL     OW 9309   2.724   2.733   3.878
 2320SOL    HW2 9310   2.726   2.737   3.974
 2320SOL    HW3 9311   2.652   2.792   3.854
 2320SOL    MW4 9312   2.715   2.742   3.888
 2321SOL     OW 9313   2.965   2.825   3.749
 2321SOL    HW2 9314   2.966   2.916   3.777
 2321SOL    HW3 9315   2.883   2.790   3.785
 2321SOL    MW4 9316   2.955   2.832   3.758
 2322SOL     OW 9317   2.944   3.081   3.846
 2322SOL    HW2 9318   3.016   3.143   3.836
 2322SOL    HW3 9319   2.865   3.133   3.834
 2322SOL    MW4 9320   2.943   3.096   3.843
 2323SOL     OW 9321   2.693   3.195   3.819
 2323SOL    HW2 9322   2.685   3.276   3.870
 2323SOL    HW3 9323   2.608   3.152   3.829
 2323SOL    MW4 9324   2.681   3.200   3.827
 2324SOL     OW 9325   2.658   3.466   3.873
 2324SOL    HW2 9326   2.662   3.456   3.968
 2324SOL    HW3 9327   2.744   3.499   3.849
 2324SOL    MW4 9328   2.670   3.469   3.883
 2325SOL     OW 9329   2.916   3.551   3.780
 2325SOL    HW2 9330   3.006   3.537   3.810
 2325SOL    HW3 9331   2.922   3.556   3.685
 2325SOL    MW4 9332   2.928   3.550   3.772
 2326SOL     OW 9333   2.897   3.816   3.852
 2326SOL    HW2 9334   2.906   3.816   3.948
 2326SOL    HW3 9335   2.892   3.723   3.829
 2326SOL    MW4 9336   2.898   3.803   3.862
 2327SOL     OW 9337   2.687   3.968   3.721
 2327SOL    HW2 9338   2.700   4.056   3.757
 2327SOL    HW3 9339   2.749   3.913   3.769
 2327SOL    MW4 9340   2.697   3.972   3.732
 2328SOL     OW 9341   2.723   4.209   3.869
 2328SOL    HW2 9342   2.791   4.272   3.845
 2328SOL    HW3 9343   2.641   4.257   3.854
 2328SOL    MW4 9344   2.721   4.224   3.863
 2329SOL     OW 9345   2.923   4.400   3.794
 2329SOL    HW2 9346   3.011   4.372   3.819
 2329SOL    HW3 9347   2.919   4.491   3.823
 2329SOL    MW4 9348   2.934   4.409   3.801
 2330SOL     OW 9349   3.349   4.645   3.868
 2330SOL    HW2 9350   3.365   4.607   3.954
 2330SOL    HW3 9351   3.433   4.684   3.842
 2330SOL    MW4 9352   3.362   4.645   3.876
 2331SOL     OW 9353   3.136   0.134   3.776
 2331SOL    HW2 9354   3.214   0.087   3.805
 2331SOL    HW3 9355   3.141   0.132   3.680
 2331SOL    MW4 9356   3.147   0.128   3.767
 2332SOL     OW 9357   3.141   0.386   3.876
 2332SOL    HW2 9358   3.150   0.357   3.966
 2332SOL    HW3 9359   3.136   0.305   3.825
 2332SOL    MW4 9360   3.142   0.372   3.881
 2333SOL     OW 9361   3.402   0.471   3.797
 2333SOL    HW2 9362   3.472   0.422   3.840
 2333SOL    HW3 9363   3.324   0.453   3.849
 2333SOL    MW4 9364   3.401   0.462   3.809
 2334SOL     OW 9365   3.435   0.730   3.896
 2334SOL    HW2 9366   3.425   0.743   3.990
 2334SOL    HW3 9367   3.411   0.638   3.883
 2334SOL    MW4 9368   3.430   0.719   3.907
 2335SOL     OW 9369   3.187   0.854   3.837
 2335SOL    HW2 9370   3.269   0.804   3.838
 2335SOL    HW3 9371   3.163   0.858   3.745
 2335SOL    MW4 9372   3.195   0.848   3.825
 2336SOL     OW 9373   3.221   1.126   3.869
 2336SOL    HW2 9374   3.210   1.040   3.829
 2336SOL    HW3 9375   3.136   1.169   3.858
 2336SOL    MW4 9376   3.208   1.120   3.862
 2337SOL     OW 9377   3.404   1.297   3.773
 2337SOL    HW2 9378   3.327   1.249   3.805
 2337SOL    HW3 9379   3.405   1.281   3.679
 2337SOL    MW4 9380   3.394   1.289   3.765
 2338SOL     OW 9381   3.398   1.546   3.901
 2338SOL    HW2 9382   3.323   1.601   3.879
 2338SOL    HW3 9383   3.379   1.462   3.860
 2338SOL    MW4 9384   3.386   1.542   3.893
 2339SOL     OW 9385   3.186   1.710   3.815
 2339SOL    HW2 9386   3.176   1.800   3.846
 2339SOL    HW3 9387   3.185   1.717   3.720
 2339SOL    MW4 9388   3.185   1.723   3.807
 2340SOL     OW 9389   3.149   1.971   3.874
 2340SOL    HW2 9390   3.141   1.939   3.964
 2340SOL    HW3 9391   3.063   2.008   3.853
 2340SOL    MW4 9392   3.137   1.972   3.883
 2341SOL     OW 9393   3.381   2.077   3.769
 2341SOL    HW2 9394   3.300   2.036   3.800
 2341SOL    HW3 9395   3.384   2.058   3.676
 2341SOL    MW4 9396   3.371   2.069   3.761
 2342SOL     OW 9397   3.381   2.323   3.879
 2342SOL    HW2 9398   3.305   2.372   3.849
 2342SOL    HW3 9399   3.374   2.239   3.833
 2342SOL    MW4 9400   3.370   2.318   3.869
 2343SOL     OW 9401   3.121   2.422   3.813
 2343SOL    HW2 9402   3.136   2.514   3.837
 2343SOL    HW3 9403   3.144   2.419   3.720
 2343SOL    MW4 9404   3.126   2.434   3.804
 2344SOL     OW 9405   3.165   2.712   3.881
 2344SOL    HW2 9406   3.176   2.746   3.970
 2344SOL    HW3 9407   3.090   2.761   3.846
 2344SOL    MW4 9408   3.156   2.723   3.888
 2345SOL     OW 9409   3.394   2.818   3.777
 2345SOL    HW2 9410   3.309   2.788   3.809
 2345SOL    HW3 9411   3.382   2.824   3.682
 2345SOL    MW4 9412   3.381   2.815   3.768
 2346SOL     OW 9413   3.422   3.085   3.883
 2346SOL    HW2 9414   3.508   3.120   3.858
 2346SOL    HW3 9415   3.421   2.996   3.848
 2346SOL    MW4 9416   3.433   3.078   3.875
 2347SOL     OW 9417   3.183   3.218   3.795
 2347SOL    HW2 9418   3.266   3.177   3.818
 2347SOL    HW3 9419   3.176   3.208   3.701
 2347SOL    MW4 9420   3.193   3.211   3.786
 2348SOL     OW 9421   3.177   3.486   3.852
 2348SOL    HW2 9422   3.241   3.536   3.801
 2348SOL    HW3 9423   3.185   3.397   3.819
 2348SOL    MW4 9424   3.187   3.481   3.841
 2349SOL     OW 9425   3.385   3.651   3.751
 2349SOL    HW2 9426   3.378   3.737   3.791
 2349SOL    HW3 9427   3.399   3.668   3.658
 2349SOL    MW4 9428   3.386   3.664   3.744
 2350SOL     OW 9429   3.375   3.900   3.874
 2350SOL    HW2 9430   3.454   3.943   3.842
 2350SOL    HW3 9431   3.303   3.948   3.832
 2350SOL    MW4 9432   3.376   3.912   3.864
 2351SOL     OW 9433   3.128   3.986   3.739
 2351SOL    HW2 9434   3.130   4.074   3.776
 2351SOL    HW3 9435   3.052   3.944   3.780
 2351SOL    MW4 9436   3.118   3.992   3.749
 2352SOL     OW 9437   3.158   4.250   3.861
 2352SOL    HW2 9438   3.157   4.228   3.955
 2352SOL    HW3 9439   3.245   4.287   3.847
 2352SOL    MW4 9440   3.170   4.252   3.872
 2353SOL     OW 9441   3.395   4.372   3.783
 2353SOL    HW2 9442   3.483   4.349   3.814
 2353SOL    HW3 9443   3.387   4.465   3.801
 2353SOL    MW4 9444   3.405   4.381   3.790
 2354SOL     OW 9445   3.810   0.012   3.884
 2354SOL    HW2 9446   3.885   0.065   3.858
 2354SOL    HW3 9447   3.832  -0.077   3.854
 2354SOL    MW4 9448   3.823   0.007   3.877
 2355SOL     OW 9449   3.579   0.132   3.812
 2355SOL    HW2 9450   3.662   0.088   3.831
 2355SOL    HW3 9451   3.582   0.148   3.717
 2355SOL    MW4 9452   3.590   0.128   3.802
 2356SOL     OW 9453   3.607   0.359   3.949
 2356SOL    HW2 9454   3.686   0.403   3.915
 2356SOL    HW3 9455   3.600   0.280   3.896
 2356SOL    MW4 9456   3.617   0.355   3.937
 2357SOL     OW 9457   3.842   0.471   3.814
 2357SOL    HW2 9458   3.917   0.436   3.862
 2357SOL    HW3 9459   3.842   0.565   3.833
 2357SOL    MW4 9460   3.852   0.479   3.823
 2358SOL     OW 9461   3.852   0.764   3.915
 2358SOL    HW2 9462   3.933   0.793   3.875
 2358SOL    HW3 9463   3.785   0.824   3.882
 2358SOL    MW4 9464   3.853   0.776   3.905
 2359SOL     OW 9465   3.636   0.886   3.780
 2359SOL    HW2 9466   3.624   0.971   3.822
 2359SOL    HW3 9467   3.564   0.833   3.813
 2359SOL    MW4 9468   3.625   0.890   3.790
 2360SOL     OW 9469   3.615   1.139   3.875
 2360SOL    HW2 9470   3.691   1.184   3.837
 2360SOL    HW3 9471   3.539   1.184   3.839
 2360SOL    MW4 9472   3.615   1.151   3.865
 2361SOL     OW 9473   3.820   1.244   3.758
 2361SOL    HW2 9474   3.905   1.205   3.781
 2361SOL    HW3 9475   3.825   1.333   3.793
 2361SOL    MW4 9476   3.832   1.251   3.766
 2362SOL     OW 9477   3.817   1.538   3.841
 2362SOL    HW2 9478   3.826   1.525   3.935
 2362SOL    HW3 9479   3.746   1.601   3.832
 2362SOL    MW4 9480   3.809   1.545   3.852
 2363SOL     OW 9481   3.596   1.702   3.788
 2363SOL    HW2 9482   3.539   1.637   3.829
 2363SOL    HW3 9483   3.604   1.674   3.697
 2363SOL    MW4 9484   3.590   1.690   3.782
 2364SOL     OW 9485   3.602   1.932   3.925
 2364SOL    HW2 9486   3.610   1.847   3.882
 2364SOL    HW3 9487   3.532   1.977   3.878
 2364SOL    MW4 9488   3.594   1.927   3.913
 2365SOL     OW 9489   3.790   2.064   3.792
 2365SOL    HW2 9490   3.871   2.017   3.814
 2365SOL    HW3 9491   3.724   2.027   3.850
 2365SOL    MW4 9492   3.792   2.053   3.802
 2366SOL     OW 9493   3.863   2.313   3.891
 2366SOL    HW2 9494   3.781   2.339   3.849
 2366SOL    HW3 9495   3.866   2.218   3.881
 2366SOL    MW4 9496   3.853   2.304   3.884
 2367SOL     OW 9497   3.618   2.426   3.767
 2367SOL    HW2 9498   3.541   2.381   3.801
 2367SOL    HW3 9499   3.597   2.445   3.675
 2367SOL    MW4 9500   3.605   2.423   3.759
 2368SOL     OW 9501   3.614   2.692   3.891
 2368SOL    HW2 9502   3.619   2.600   3.864
 2368SOL    HW3 9503   3.541   2.728   3.841
 2368SOL    MW4 9504   3.605   2.684   3.881
 2369SOL     OW 9505   3.825   2.809   3.771
 2369SOL    HW2 9506   3.904   2.774   3.813
 2369SOL    HW3 9507   3.753   2.776   3.824
 2369SOL    MW4 9508   3.826   2.800   3.783
 2370SOL     OW 9509   3.877   3.069   3.880
 2370SOL    HW2 9510   3.794   3.107   3.851
 2370SOL    HW3 9511   3.869   2.976   3.861
 2370SOL    MW4 9512   3.865   3.062   3.874
 2371SOL     OW 9513   3.660   3.202   3.801
 2371SOL    HW2 9514   3.651   3.291   3.836
 2371SOL    HW3 9515   3.643   3.210   3.708
 2371SOL    MW4 9516   3.657   3.215   3.793
 2372SOL     OW 9517   3.604   3.481   3.833
 2372SOL    HW2 9518   3.604   3.493   3.928
 2372SOL    HW3 9519   3.522   3.520   3.804
 2372SOL    MW4 9520   3.593   3.488   3.842
 2373SOL     OW 9521   3.834   3.622   3.764
 2373SOL    HW2 9522   3.822   3.704   3.812
 2373SOL    HW3 9523   3.760   3.567   3.791
 2373SOL    MW4 9524   3.823   3.625   3.774
 2374SOL     OW 9525   3.785   3.855   3.887
 2374SOL    HW2 9526   3.771   3.845   3.981
 2374SOL    HW3 9527   3.861   3.912   3.879
 2374SOL    MW4 9528   3.793   3.861   3.898
 2375SOL     OW 9529   3.594   4.018   3.775
 2375SOL    HW2 9530   3.616   4.094   3.829
 2375SOL    HW3 9531   3.656   3.950   3.804
 2375SOL    MW4 9532   3.605   4.019   3.786
 2376SOL     OW 9533   3.653   4.267   3.892
 2376SOL    HW2 9534   3.667   4.261   3.986
 2376SOL    HW3 9535   3.722   4.326   3.861
 2376SOL    MW4 9536   3.664   4.274   3.900
 2377SOL     OW 9537   3.850   4.409   3.767
 2377SOL    HW2 9538   3.926   4.359   3.798
 2377SOL    HW3 9539   3.858   4.406   3.671
 2377SOL    MW4 9540   3.861   4.402   3.758
 2378SOL     OW 9541   4.262   4.624   3.916
 2378SOL    HW2 9542   4.256   4.629   4.011
 2378SOL    HW3 9543   4.338   4.677   3.894
 2378SOL    MW4 9544   4.271   4.632   3.925
 2379SOL     OW 9545   4.064   0.145   3.824
 2379SOL    HW2 9546   4.118   0.068   3.839
 2379SOL    HW3 9547   4.069   0.160   3.729
 2379SOL    MW4 9548   4.072   0.137   3.813
 2380SOL     OW 9549   4.090   0.393   3.930
 2380SOL    HW2 9550   4.076   0.389   4.025
 2380SOL    HW3 9551   4.079   0.303   3.900
 2380SOL    MW4 9552   4.087   0.381   3.939
 2381SOL     OW 9553   4.282   0.524   3.804
 2381SOL    HW2 9554   4.207   0.476   3.838
 2381SOL    HW3 9555   4.285   0.499   3.711
 2381SOL    MW4 9556   4.272   0.515   3.796
 2382SOL     OW 9557   4.304   0.787   3.881
 2382SOL    HW2 9558   4.224   0.836   3.862
 2382SOL    HW3 9559   4.285   0.698   3.852
 2382SOL    MW4 9560   4.291   0.782   3.875
 2383SOL     OW 9561   4.080   0.896   3.763
 2383SOL    HW2 9562   4.073   0.991   3.772
 2383SOL    HW3 9563   4.109   0.883   3.673
 2383SOL    MW4 9564   4.083   0.907   3.752
 2384SOL     OW 9565   4.085   1.160   3.834
 2384SOL    HW2 9566   4.064   1.147   3.927
 2384SOL    HW3 9567   4.169   1.205   3.835
 2384SOL    MW4 9568   4.093   1.164   3.847
 2385SOL     OW 9569   4.326   1.308   3.824
 2385SOL    HW2 9570   4.289   1.390   3.856
 2385SOL    HW3 9571   4.322   1.315   3.729
 2385SOL    MW4 9572   4.320   1.320   3.816
 2386SOL     OW 9573   4.247   1.554   3.913
 2386SOL    HW2 9574   4.177   1.596   3.862
 2386SOL    HW3 9575   4.328   1.590   3.876
 2386SOL    MW4 9576   4.249   1.565   3.901
 2387SOL     OW 9577   4.048   1.677   3.776
 2387SOL    HW2 9578   4.044   1.766   3.812
 2387SOL    HW3 9579   3.965   1.637   3.802
 2387SOL    MW4 9580   4.036   1.684   3.784
 2388SOL     OW 9581   4.010   1.920   3.909
 2388SOL    HW2 9582   3.996   1.905   4.002
 2388SOL    HW3 9583   4.088   1.974   3.904
 2388SOL    MW4 9584   4.018   1.925   3.920
 2389SOL     OW 9585   4.269   2.059   3.819
 2389SOL    HW2 9586   4.265   2.154   3.831
 2389SOL    HW3 9587   4.268   2.047   3.724
 2389SOL    MW4 9588   4.268   2.070   3.808
 2390SOL     OW 9589   4.270   2.318   3.907
 2390SOL    HW2 9590   4.246   2.286   3.994
 2390SOL    HW3 9591   4.190   2.359   3.874
 2390SOL    MW4 9592   4.256   2.319   3.914
 2391SOL     OW 9593   4.064   2.459   3.792
 2391SOL    HW2 9594   4.062   2.542   3.840
 2391SOL    HW3 9595   3.990   2.410   3.826
 2391SOL    MW4 9596   4.054   2.464   3.803
 2392SOL     OW 9597   4.058   2.706   3.916
 2392SOL    HW2 9598   4.047   2.706   4.011
 2392SOL    HW3 9599   4.135   2.761   3.901
 2392SOL    MW4 9600   4.066   2.714   3.926
 2393SOL     OW 9601   4.286   2.815   3.810
 2393SOL    HW2 9602   4.308   2.908   3.819
 2393SOL    HW3 9603   4.364   2.769   3.841
 2393SOL    MW4 9604   4.299   2.822   3.815
 2394SOL     OW 9605   4.315   3.089   3.851
 2394SOL    HW2 9606   4.239   3.134   3.813
 2394SOL    HW3 9607   4.389   3.146   3.829
 2394SOL    MW4 9608   4.315   3.103   3.843
 2395SOL     OW 9609   4.083   3.248   3.771
 2395SOL    HW2 9610   4.014   3.195   3.811
 2395SOL    HW3 9611   4.081   3.225   3.678
 2395SOL    MW4 9612   4.074   3.238   3.764
 2396SOL     OW 9613   4.045   3.521   3.893
 2396SOL    HW2 9614   4.052   3.433   3.857
 2396SOL    HW3 9615   3.973   3.562   3.844
 2396SOL    MW4 9616   4.036   3.515   3.882
 2397SOL     OW 9617   4.272   3.626   3.773
 2397SOL    HW2 9618   4.200   3.600   3.831
 2397SOL    HW3 9619   4.345   3.569   3.799
 2397SOL    MW4 9620   4.272   3.615   3.784
 2398SOL     OW 9621   4.274   3.888   3.887
 2398SOL    HW2 9622   4.190   3.923   3.856
 2398SOL    HW3 9623   4.284   3.805   3.839
 2398SOL    MW4 9624   4.264   3.882   3.876
 2399SOL     OW 9625   4.018   3.986   3.810
 2399SOL    HW2 9626   4.047   4.067   3.852
 2399SOL    HW3 9627   4.014   4.008   3.717
 2399SOL    MW4 9628   4.021   4.000   3.803
 2400SOL     OW 9629   4.086   4.239   3.882
 2400SOL    HW2 9630   4.084   4.268   3.973
 2400SOL    HW3 9631   4.164   4.279   3.845
 2400SOL    MW4 9632   4.096   4.248   3.889
 2401SOL     OW 9633   4.326   4.383   3.801
 2401SOL    HW2 9634   4.322   4.470   3.841
 2401SOL    HW3 9635   4.396   4.338   3.848
 2401SOL    MW4 9636   4.335   4.388   3.812
 2402SOL     OW 9637   0.237   4.630   4.132
 2402SOL    HW2 9638   0.319   4.656   4.174
 2402SOL    HW3 9639   0.226   4.538   4.154
 2402SOL    MW4 9640   0.246   4.622   4.140
 2403SOL     OW 9641   0.006   0.090   4.246
 2403SOL    HW2 9642   0.029   0.101   4.338
 2403SOL    HW3 9643   0.080   0.045   4.207
 2403SOL    MW4 9644   0.019   0.086   4.253
 2404SOL     OW 9645   0.030   0.348   4.163
 2404SOL    HW2 9646   0.020   0.254   4.180
 2404SOL    HW3 9647   0.018   0.357   4.069
 2404SOL    MW4 9648   0.027   0.336   4.153
 2405SOL     OW 9649   0.278   0.495   4.195
 2405SOL    HW2 9650   0.352   0.446   4.159
 2405SOL    HW3 9651   0.205   0.432   4.192
 2405SOL    MW4 9652   0.278   0.480   4.190
 2406SOL     OW 9653   0.259   0.782   4.168
 2406SOL    HW2 9654   0.175   0.804   4.207
 2406SOL    HW3 9655   0.266   0.687   4.178
 2406SOL    MW4 9656   0.249   0.772   4.174
 2407SOL     OW 9657   0.008   0.869   4.275
 2407SOL    HW2 9658  -0.073   0.827   4.247
 2407SOL    HW3 9659   0.002   0.959   4.241
 2407SOL    MW4 9660  -0.003   0.876   4.267
 2408SOL     OW 9661   0.005   1.139   4.165
 2408SOL    HW2 9662   0.056   1.216   4.188
 2408SOL    HW3 9663   0.005   1.139   4.069
 2408SOL    MW4 9664   0.012   1.149   4.155
 2409SOL     OW 9665   0.230   1.300   4.272
 2409SOL    HW2 9666   0.248   1.312   4.365
 2409SOL    HW3 9667   0.298   1.240   4.242
 2409SOL    MW4 9668   0.241   1.294   4.280
 2410SOL     OW 9669   4.394   1.844   4.744
 2410SOL    HW2 9670   4.416   1.798   4.825
 2410SOL    HW3 9671   4.473   1.836   4.690
 2410SOL    MW4 9672   4.408   1.837   4.748
 2411SOL     OW 9673   4.488   1.682   4.294
 2411SOL    HW2 9674   4.409   1.631   4.279
 2411SOL    HW3 9675   4.488   1.749   4.225
 2411SOL    MW4 9676   4.478   1.684   4.283
 2412SOL     OW 9677   0.236   2.031   4.177
 2412SOL    HW2 9678   0.215   2.046   4.269
 2412SOL    HW3 9679   0.325   1.995   4.178
 2412SOL    MW4 9680   0.245   2.028   4.189
 2413SOL     OW 9681   0.577   1.563   4.649
 2413SOL    HW2 9682   0.488   1.592   4.629
 2413SOL    HW3 9683   0.618   1.641   4.688
 2413SOL    MW4 9684   0.571   1.577   4.652
 2414SOL     OW 9685   0.247   2.296   4.178
 2414SOL    HW2 9686   0.335   2.317   4.207
 2414SOL    HW3 9687   0.248   2.201   4.166
 2414SOL    MW4 9688   0.259   2.286   4.181
 2415SOL     OW 9689   0.006   2.405   4.274
 2415SOL    HW2 9690  -0.071   2.374   4.226
 2415SOL    HW3 9691   0.081   2.367   4.228
 2415SOL    MW4 9692   0.006   2.396   4.261
 2416SOL     OW 9693   0.011   2.671   4.183
 2416SOL    HW2 9694   0.098   2.704   4.204
 2416SOL    HW3 9695   0.010   2.582   4.217
 2416SOL    MW4 9696   0.022   2.663   4.190
 2417SOL     OW 9697   0.288   2.807   4.279
 2417SOL    HW2 9698   0.363   2.757   4.247
 2417SOL    HW3 9699   0.303   2.896   4.248
 2417SOL    MW4 9700   0.300   2.812   4.271
 2418SOL     OW 9701   0.279   3.078   4.162
 2418SOL    HW2 9702   0.345   3.132   4.207
 2418SOL    HW3 9703   0.196   3.121   4.181
 2418SOL    MW4 9704   0.277   3.091   4.171
 2419SOL     OW 9705   0.036   3.195   4.208
 2419SOL    HW2 9706  -0.051   3.159   4.187
 2419SOL    HW3 9707   0.029   3.287   4.185
 2419SOL    MW4 9708   0.023   3.202   4.202
 2420SOL     OW 9709   0.030   3.452   4.143
 2420SOL    HW2 9710  -0.053   3.476   4.185
 2420SOL    HW3 9711   0.023   3.488   4.055
 2420SOL    MW4 9712   0.018   3.460   4.137
 2421SOL     OW 9713   0.239   3.627   4.245
 2421SOL    HW2 9714   0.319   3.582   4.218
 2421SOL    HW3 9715   0.168   3.570   4.217
 2421SOL    MW4 9716   0.240   3.614   4.237
 2422SOL     OW 9717   0.253   3.896   4.186
 2422SOL    HW2 9718   0.183   3.947   4.228
 2422SOL    HW3 9719   0.236   3.806   4.213
 2422SOL    MW4 9720   0.241   3.891   4.195
 2423SOL     OW 9721   0.039   4.007   4.315
 2423SOL    HW2 9722   0.022   3.996   4.409
 2423SOL    HW3 9723  -0.041   3.975   4.273
 2423SOL    MW4 9724   0.026   4.001   4.322
 2424SOL     OW 9725   4.458   4.245   4.210
 2424SOL    HW2 9726   4.493   4.166   4.252
 2424SOL    HW3 9727   4.477   4.233   4.117
 2424SOL    MW4 9728   4.465   4.233   4.203
 2425SOL     OW 9729   0.211   4.368   4.198
 2425SOL    HW2 9730   0.232   4.352   4.290
 2425SOL    HW3 9731   0.116   4.360   4.194
 2425SOL    MW4 9732   0.201   4.365   4.210
 2426SOL     OW 9733   0.708   4.665   4.142
 2426SOL    HW2 9734   0.619   4.690   4.168
 2426SOL    HW3 9735   0.702   4.649   4.048
 2426SOL    MW4 9736   0.696   4.666   4.133
 2427SOL     OW 9737   0.464   0.064   4.260
 2427SOL    HW2 9738   0.481   0.070   4.354
 2427SOL    HW3 9739   0.469   0.154   4.229
 2427SOL    MW4 9740   0.467   0.077   4.269
 2428SOL     OW 9741   0.500   0.311   4.106
 2428SOL    HW2 9742   0.579   0.359   4.131
 2428SOL    HW3 9743   0.498   0.315   4.010
 2428SOL    MW4 9744   0.510   0.318   4.097
 2429SOL     OW 9745   0.650   0.491   4.250
 2429SOL    HW2 9746   0.732   0.443   4.262
 2429SOL    HW3 9747   0.677   0.579   4.223
 2429SOL    MW4 9748   0.665   0.496   4.248
 2430SOL     OW 9749   0.700   0.764   4.207
 2430SOL    HW2 9750   0.633   0.817   4.249
 2430SOL    HW3 9751   0.696   0.790   4.115
 2430SOL    MW4 9752   0.691   0.774   4.200
 2431SOL     OW 9753   0.481   0.918   4.301
 2431SOL    HW2 9754   0.479   1.006   4.263
 2431SOL    HW3 9755   0.405   0.874   4.264
 2431SOL    MW4 9756   0.471   0.924   4.291
 2432SOL     OW 9757   0.454   1.165   4.192
 2432SOL    HW2 9758   0.530   1.215   4.220
 2432SOL    HW3 9759   0.470   1.145   4.100
 2432SOL    MW4 9760   0.466   1.169   4.184
 2433SOL     OW 9761   0.682   1.301   4.262
 2433SOL    HW2 9762   0.690   1.320   4.356
 2433SOL    HW3 9763   0.681   1.386   4.220
 2433SOL    MW4 9764   0.683   1.314   4.269
 2434SOL     OW 9765   0.667   1.555   4.159
 2434SOL    HW2 9766   0.750   1.593   4.186
 2434SOL    HW3 9767   0.674   1.548   4.063
 2434SOL    MW4 9768   0.679   1.559   4.150
 2435SOL     OW 9769   0.231   1.567   4.169
 2435SOL    HW2 9770   0.241   1.478   4.203
 2435SOL    HW3 9771   0.147   1.596   4.203
 2435SOL    MW4 9772   0.221   1.559   4.178
 2436SOL     OW 9773   0.501   1.949   4.186
 2436SOL    HW2 9774   0.500   1.858   4.216
 2436SOL    HW3 9775   0.504   1.942   4.091
 2436SOL    MW4 9776   0.501   1.936   4.178
 2437SOL     OW 9777   0.750   2.027   4.292
 2437SOL    HW2 9778   0.747   2.039   4.387
 2437SOL    HW3 9779   0.660   2.005   4.268
 2437SOL    MW4 9780   0.738   2.026   4.301
 2438SOL     OW 9781   0.755   2.279   4.174
 2438SOL    HW2 9782   0.757   2.189   4.208
 2438SOL    HW3 9783   0.741   2.269   4.080
 2438SOL    MW4 9784   0.753   2.266   4.166
 2439SOL     OW 9785   0.507   2.373   4.272
 2439SOL    HW2 9786   0.503   2.468   4.259
 2439SOL    HW3 9787   0.593   2.348   4.239
 2439SOL    MW4 9788   0.518   2.382   4.266
 2440SOL     OW 9789   0.511   2.645   4.186
 2440SOL    HW2 9790   0.577   2.700   4.229
 2440SOL    HW3 9791   0.519   2.667   4.093
 2440SOL    MW4 9792   0.521   2.655   4.179
 2441SOL     OW 9793   0.720   2.835   4.269
 2441SOL    HW2 9794   0.749   2.848   4.360
 2441SOL    HW3 9795   0.713   2.923   4.233
 2441SOL    MW4 9796   0.723   2.848   4.276
 2442SOL     OW 9797   0.728   3.099   4.180
 2442SOL    HW2 9798   0.794   3.148   4.230
 2442SOL    HW3 9799   0.645   3.141   4.205
 2442SOL    MW4 9800   0.726   3.111   4.190
 2443SOL     OW 9801   0.498   3.242   4.256
 2443SOL    HW2 9802   0.457   3.245   4.342
 2443SOL    HW3 9803   0.498   3.332   4.226
 2443SOL    MW4 9804   0.493   3.254   4.264
 2444SOL     OW 9805   0.478   3.489   4.146
 2444SOL    HW2 9806   0.557   3.543   4.155
 2444SOL    HW3 9807   0.464   3.482   4.052
 2444SOL    MW4 9808   0.487   3.495   4.135
 2445SOL     OW 9809   0.717   3.629   4.202
 2445SOL    HW2 9810   0.678   3.628   4.290
 2445SOL    HW3 9811   0.800   3.582   4.213
 2445SOL    MW4 9812   0.723   3.623   4.215
 2446SOL     OW 9813   0.720   3.890   4.114
 2446SOL    HW2 9814   0.654   3.940   4.161
 2446SOL    HW3 9815   0.712   3.801   4.148
 2446SOL    MW4 9816   0.711   3.885   4.124
 2447SOL     OW 9817   0.500   4.027   4.212
 2447SOL    HW2 9818   0.475   4.108   4.168
 2447SOL    HW3 9819   0.423   3.970   4.203
 2447SOL    MW4 9820   0.486   4.030   4.205
 2448SOL     OW 9821   0.446   4.272   4.107
 2448SOL    HW2 9822   0.367   4.314   4.141
 2448SOL    HW3 9823   0.435   4.272   4.012
 2448SOL    MW4 9824   0.434   4.277   4.099
 2449SOL     OW 9825   0.652   4.413   4.239
 2449SOL    HW2 9826   0.578   4.377   4.190
 2449SOL    HW3 9827   0.673   4.495   4.195
 2449SOL    MW4 9828   0.645   4.419   4.227
 2450SOL     OW 9829   1.165   4.649   4.172
 2450SOL    HW2 9830   1.174   4.556   4.194
 2450SOL    HW3 9831   1.136   4.649   4.080
 2450SOL    MW4 9832   1.162   4.637   4.162
 2451SOL     OW 9833   0.947   0.090   4.293
 2451SOL    HW2 9834   1.030   0.049   4.272
 2451SOL    HW3 9835   0.881   0.033   4.253
 2451SOL    MW4 9836   0.949   0.077   4.285
 2452SOL     OW 9837   0.889   0.344   4.195
 2452SOL    HW2 9838   0.969   0.389   4.223
 2452SOL    HW3 9839   0.902   0.253   4.222
 2452SOL    MW4 9840   0.901   0.338   4.202
 2453SOL     OW 9841   1.154   0.441   4.269
 2453SOL    HW2 9842   1.186   0.405   4.352
 2453SOL    HW3 9843   1.226   0.426   4.207
 2453SOL    MW4 9844   1.168   0.434   4.271
 2454SOL     OW 9845   1.111   0.712   4.179
 2454SOL    HW2 9846   1.189   0.754   4.215
 2454SOL    HW3 9847   1.120   0.620   4.204
 2454SOL    MW4 9848   1.123   0.705   4.187
 2455SOL     OW 9849   0.914   0.865   4.324
 2455SOL    HW2 9850   0.993   0.817   4.298
 2455SOL    HW3 9851   0.842   0.818   4.282
 2455SOL    MW4 9852   0.915   0.853   4.315
 2456SOL     OW 9853   0.882   1.097   4.167
 2456SOL    HW2 9854   0.913   1.025   4.222
 2456SOL    HW3 9855   0.807   1.132   4.214
 2456SOL    MW4 9856   0.876   1.092   4.180
 2457SOL     OW 9857   1.105   1.261   4.229
 2457SOL    HW2 9858   1.123   1.268   4.323
 2457SOL    HW3 9859   1.025   1.210   4.224
 2457SOL    MW4 9860   1.097   1.255   4.241
 2458SOL     OW 9861   1.121   1.515   4.126
 2458SOL    HW2 9862   1.062   1.564   4.182
 2458SOL    HW3 9863   1.113   1.424   4.156
 2458SOL    MW4 9864   1.112   1.509   4.137
 2459SOL     OW 9865   0.923   1.637   4.264
 2459SOL    HW2 9866   0.927   1.618   4.357
 2459SOL    HW3 9867   0.956   1.726   4.255
 2459SOL    MW4 9868   0.928   1.646   4.275
 2460SOL     OW 9869   0.944   1.889   4.155
 2460SOL    HW2 9870   0.862   1.927   4.187
 2460SOL    HW3 9871   0.935   1.893   4.059
 2460SOL    MW4 9872   0.932   1.894   4.146
 2461SOL     OW 9873   1.155   2.109   4.180
 2461SOL    HW2 9874   1.160   2.128   4.274
 2461SOL    HW3 9875   1.079   2.052   4.171
 2461SOL    MW4 9876   1.146   2.104   4.191
 2462SOL     OW 9877   1.129   2.382   4.138
 2462SOL    HW2 9878   1.205   2.422   4.181
 2462SOL    HW3 9879   1.149   2.288   4.138
 2462SOL    MW4 9880   1.142   2.375   4.143
 2463SOL     OW 9881   0.915   2.476   4.294
 2463SOL    HW2 9882   0.997   2.447   4.255
 2463SOL    HW3 9883   0.849   2.415   4.260
 2463SOL    MW4 9884   0.917   2.464   4.284
 2464SOL     OW 9885   0.896   2.687   4.110
 2464SOL    HW2 9886   0.912   2.629   4.185
 2464SOL    HW3 9887   0.843   2.759   4.147
 2464SOL    MW4 9888   0.891   2.689   4.125
 2465SOL     OW 9889   1.112   2.844   4.191
 2465SOL    HW2 9890   1.099   2.930   4.152
 2465SOL    HW3 9891   1.033   2.795   4.167
 2465SOL    MW4 9892   1.100   2.848   4.183
 2466SOL     OW 9893   1.125   3.119   4.134
 2466SOL    HW2 9894   1.211   3.154   4.155
 2466SOL    HW3 9895   1.119   3.124   4.039
 2466SOL    MW4 9896   1.135   3.124   4.124
 2467SOL     OW 9897   0.924   3.260   4.279
 2467SOL    HW2 9898   0.927   3.246   4.374
 2467SOL    HW3 9899   0.991   3.202   4.244
 2467SOL    MW4 9900   0.933   3.250   4.287
 2468SOL     OW 9901   0.963   3.503   4.184
 2468SOL    HW2 9902   0.946   3.417   4.222
 2468SOL    HW3 9903   0.946   3.492   4.090
 2468SOL    MW4 9904   0.958   3.490   4.177
 2469SOL     OW 9905   1.174   3.672   4.264
 2469SOL    HW2 9906   1.174   3.746   4.204
 2469SOL    HW3 9907   1.104   3.616   4.234
 2469SOL    MW4 9908   1.165   3.675   4.252
 2470SOL     OW 9909   1.154   3.918   4.144
 2470SOL    HW2 9910   1.232   3.963   4.175
 2470SOL    HW3 9911   1.083   3.950   4.199
 2470SOL    MW4 9912   1.155   3.928   4.155
 2471SOL     OW 9913   0.921   4.030   4.275
 2471SOL    HW2 9914   0.914   4.122   4.249
 2471SOL    HW3 9915   0.860   3.984   4.218
 2471SOL    MW4 9916   0.912   4.036   4.264
 2472SOL     OW 9917   0.910   4.292   4.193
 2472SOL    HW2 9918   0.979   4.333   4.245
 2472SOL    HW3 9919   0.829   4.332   4.225
 2472SOL    MW4 9920   0.908   4.303   4.204
 2473SOL     OW 9921   1.137   4.406   4.296
 2473SOL    HW2 9922   1.136   4.415   4.391
 2473SOL    HW3 9923   1.222   4.365   4.277
 2473SOL    MW4 9924   1.148   4.402   4.306
 2474SOL     OW 9925   1.616   0.030   4.174
 2474SOL    HW2 9926   1.692   0.070   4.216
 2474SOL    HW3 9927   1.541   0.066   4.220
 2474SOL    MW4 9928   1.617   0.040   4.185
 2475SOL     OW 9929   1.375   0.109   4.285
 2475SOL    HW2 9930   1.372   0.091   4.379
 2475SOL    HW3 9931   1.305   0.055   4.248
 2475SOL    MW4 9932   1.365   0.100   4.293
 2476SOL     OW 9933   1.393   0.313   4.075
 2476SOL    HW2 9934   1.459   0.377   4.104
 2476SOL    HW3 9935   1.388   0.250   4.147
 2476SOL    MW4 9936   1.401   0.313   4.089
 2477SOL     OW 9937   1.582   0.484   4.196
 2477SOL    HW2 9938   1.601   0.478   4.289
 2477SOL    HW3 9939   1.567   0.577   4.180
 2477SOL    MW4 9940   1.582   0.495   4.206
 2478SOL     OW 9941   1.542   0.756   4.161
 2478SOL    HW2 9942   1.624   0.780   4.204
 2478SOL    HW3 9943   1.551   0.788   4.072
 2478SOL    MW4 9944   1.554   0.763   4.155
 2479SOL     OW 9945   1.321   0.889   4.281
 2479SOL    HW2 9946   1.318   0.983   4.262
 2479SOL    HW3 9947   1.401   0.858   4.238
 2479SOL    MW4 9948   1.332   0.897   4.273
 2480SOL     OW 9949   1.354   1.154   4.186
 2480SOL    HW2 9950   1.267   1.188   4.208
 2480SOL    HW3 9951   1.356   1.152   4.091
 2480SOL    MW4 9952   1.342   1.158   4.177
 2481SOL     OW 9953   1.582   1.282   4.253
 2481SOL    HW2 9954   1.598   1.302   4.345
 2481SOL    HW3 9955   1.493   1.246   4.252
 2481SOL    MW4 9956   1.572   1.280   4.265
 2482SOL     OW 9957   1.576   1.521   4.113
 2482SOL    HW2 9958   1.503   1.557   4.163
 2482SOL    HW3 9959   1.590   1.433   4.150
 2482SOL    MW4 9960   1.568   1.514   4.125
 2483SOL     OW 9961   1.360   1.627   4.241
 2483SOL    HW2 9962   1.342   1.720   4.225
 2483SOL    HW3 9963   1.278   1.583   4.220
 2483SOL    MW4 9964   1.347   1.634   4.236
 2484SOL     OW 9965   1.314   1.883   4.172
 2484SOL    HW2 9966   1.403   1.914   4.190
 2484SOL    HW3 9967   1.259   1.960   4.183
 2484SOL    MW4 9968   1.318   1.897   4.175
 2485SOL     OW 9969   1.560   2.016   4.203
 2485SOL    HW2 9970   1.649   1.996   4.174
 2485SOL    HW3 9971   1.553   2.111   4.193
 2485SOL    MW4 9972   1.571   2.026   4.198
 2486SOL     OW 9973   1.543   2.313   4.157
 2486SOL    HW2 9974   1.621   2.339   4.206
 2486SOL    HW3 9975   1.569   2.319   4.066
 2486SOL    MW4 9976   1.557   2.317   4.152
 2487SOL     OW 9977   1.539   2.900   4.327
 2487SOL    HW2 9978   1.497   2.965   4.384
 2487SOL    HW3 9979   1.624   2.884   4.369
 2487SOL    MW4 9980   1.545   2.906   4.340
 2488SOL     OW 9981   1.371   2.751   4.137
 2488SOL    HW2 9982   1.433   2.801   4.192
 2488SOL    HW3 9983   1.285   2.784   4.163
 2488SOL    MW4 9984   1.368   2.762   4.148
 2489SOL     OW 9985   1.604   2.381   4.559
 2489SOL    HW2 9986   1.652   2.451   4.602
 2489SOL    HW3 9987   1.646   2.373   4.473
 2489SOL    MW4 9988   1.616   2.389   4.553
 2490SOL     OW 9989   1.592   3.107   4.156
 2490SOL    HW2 9990   1.645   3.164   4.212
 2490SOL    HW3 9991   1.600   3.020   4.196
 2490SOL    MW4 9992   1.600   3.103   4.169
 2491SOL     OW 9993   1.354   3.225   4.243
 2491SOL    HW2 9994   1.435   3.183   4.215
 2491SOL    HW3 9995   1.366   3.318   4.223
 2491SOL    MW4 9996   1.366   3.232   4.236
 2492SOL     OW 9997   1.354   3.502   4.167
 2492SOL    HW2 9998   1.289   3.561   4.204
 2492SOL    HW3 9999   1.347   3.516   4.072
 2492SOL    MW410000   1.345   3.512   4.159
 2493SOL     OW10001   1.585   3.636   4.242
 2493SOL    HW210002   1.578   3.650   4.337
 2493SOL    HW310003   1.511   3.581   4.220
 2493SOL    MW410004   1.574   3.631   4.252
 2494SOL     OW10005   1.598   3.896   4.141
 2494SOL    HW210006   1.514   3.938   4.161
 2494SOL    HW310007   1.588   3.807   4.174
 2494SOL    MW410008   1.586   3.890   4.148
 2495SOL     OW10009   1.392   4.023   4.250
 2495SOL    HW210010   1.426   4.021   4.339
 2495SOL    HW310011   1.372   4.115   4.233
 2495SOL    MW410012   1.394   4.034   4.259
 2496SOL     OW10013   1.364   4.303   4.194
 2496SOL    HW210014   1.439   4.357   4.218
 2496SOL    HW310015   1.351   4.319   4.101
 2496SOL    MW410016   1.372   4.312   4.185
 2497SOL     OW10017   1.591   4.446   4.277
 2497SOL    HW210018   1.602   4.530   4.233
 2497SOL    HW310019   1.662   4.392   4.242
 2497SOL    MW410020   1.602   4.450   4.266
 2498SOL     OW10021   2.006   4.630   4.179
 2498SOL    HW210022   1.953   4.693   4.227
 2498SOL    HW310023   1.991   4.652   4.087
 2498SOL    MW410024   1.997   4.641   4.173
 2499SOL     OW10025   1.857   0.171   4.302
 2499SOL    HW210026   1.812   0.196   4.383
 2499SOL    HW310027   1.849   0.248   4.245
 2499SOL    MW410028   1.850   0.185   4.305
 2500SOL     OW10029   1.826   0.387   4.111
 2500SOL    HW210030   1.892   0.431   4.165
 2500SOL    HW310031   1.742   0.420   4.143
 2500SOL    MW410032   1.824   0.397   4.123
 2501SOL     OW10033   2.019   0.498   4.278
 2501SOL    HW210034   2.041   0.545   4.359
 2501SOL    HW310035   2.102   0.461   4.249
 2501SOL    MW410036   2.033   0.499   4.285
 2502SOL     OW10037   2.023   0.724   4.125
 2502SOL    HW210038   2.093   0.777   4.163
 2502SOL    HW310039   2.022   0.644   4.178
 2502SOL    MW410040   2.032   0.720   4.137
 2503SOL     OW10041   1.795   0.830   4.269
 2503SOL    HW210042   1.792   0.921   4.239
 2503SOL    HW310043   1.863   0.790   4.216
 2503SOL    MW410044   1.803   0.837   4.258
 2504SOL     OW10045   1.785   1.095   4.167
 2504SOL    HW210046   1.865   1.140   4.194
 2504SOL    HW310047   1.715   1.153   4.196
 2504SOL    MW410048   1.786   1.109   4.175
 2505SOL     OW10049   2.008   1.254   4.233
 2505SOL    HW210050   2.090   1.222   4.196
 2505SOL    HW310051   2.006   1.347   4.209
 2505SOL    MW410052   2.018   1.262   4.225
 2506SOL     OW10053   2.030   1.510   4.146
 2506SOL    HW210054   2.113   1.531   4.191
 2506SOL    HW310055   2.050   1.522   4.053
 2506SOL    MW410056   2.044   1.515   4.140
 2507SOL     OW10057   1.797   1.632   4.237
 2507SOL    HW210058   1.878   1.597   4.200
 2507SOL    HW310059   1.728   1.578   4.198
 2507SOL    MW410060   1.798   1.620   4.227
 2508SOL     OW10061   1.818   1.896   4.151
 2508SOL    HW210062   1.813   1.806   4.182
 2508SOL    HW310063   1.852   1.946   4.225
 2508SOL    MW410064   1.822   1.891   4.165
 2509SOL     OW10065   1.788   2.358   4.326
 2509SOL    HW210066   1.874   2.316   4.325
 2509SOL    HW310067   1.805   2.449   4.304
 2509SOL    MW410068   1.802   2.364   4.323
 2510SOL     OW10069   2.378   2.475   4.084
 2510SOL    HW210070   2.298   2.426   4.103
 2510SOL    HW310071   2.405   2.443   3.998
 2510SOL    MW410072   2.371   2.464   4.075
 2511SOL     OW10073   1.798   2.844   4.413
 2511SOL    HW210074   1.810   2.821   4.321
 2511SOL    HW310075   1.884   2.877   4.441
 2511SOL    MW410076   1.811   2.845   4.405
 2512SOL     OW10077   1.831   2.788   4.142
 2512SOL    HW210078   1.881   2.707   4.151
 2512SOL    HW310079   1.896   2.858   4.152
 2512SOL    MW410080   1.846   2.787   4.145
 2513SOL     OW10081   1.983   3.142   4.339
 2513SOL    HW210082   2.008   3.072   4.399
 2513SOL    HW310083   2.005   3.108   4.252
 2513SOL    MW410084   1.989   3.128   4.335
 2514SOL     OW10085   2.222   2.831   4.142
 2514SOL    HW210086   2.280   2.907   4.150
 2514SOL    HW310087   2.193   2.813   4.232
 2514SOL    MW410088   2.226   2.838   4.155
 2515SOL     OW10089   1.738   3.264   4.324
 2515SOL    HW210090   1.769   3.339   4.274
 2515SOL    HW310091   1.815   3.209   4.337
 2515SOL    MW410092   1.752   3.266   4.319
 2516SOL     OW10093   1.829   3.514   4.216
 2516SOL    HW210094   1.757   3.574   4.235
 2516SOL    HW310095   1.822   3.497   4.122
 2516SOL    MW410096   1.818   3.520   4.206
 2517SOL     OW10097   2.017   3.668   4.337
 2517SOL    HW210098   2.022   3.742   4.276
 2517SOL    HW310099   1.948   3.612   4.302
 2517SOL    MW410100   2.009   3.670   4.324
 2518SOL     OW10101   2.034   3.892   4.163
 2518SOL    HW210102   1.963   3.951   4.187
 2518SOL    HW310103   2.043   3.902   4.068
 2518SOL    MW410104   2.026   3.901   4.154
 2519SOL     OW10105   1.811   4.031   4.259
 2519SOL    HW210106   1.800   4.122   4.231
 2519SOL    HW310107   1.741   3.983   4.214
 2519SOL    MW410108   1.800   4.037   4.250
 2520SOL     OW10109   1.775   4.278   4.158
 2520SOL    HW210110   1.859   4.317   4.184
 2520SOL    HW310111   1.785   4.259   4.065
 2520SOL    MW410112   1.787   4.281   4.149
 2521SOL     OW10113   2.013   4.356   4.280
 2521SOL    HW210114   2.029   4.342   4.373
 2521SOL    HW310115   2.011   4.451   4.271
 2521SOL    MW410116   2.015   4.367   4.291
 2522SOL     OW10117   2.484   4.634   4.082
 2522SOL    HW210118   2.539   4.677   4.147
 2522SOL    HW310119   2.491   4.541   4.102
 2522SOL    MW410120   2.492   4.627   4.093
 2523SOL     OW10121   2.263   0.079   4.247
 2523SOL    HW210122   2.323   0.047   4.180
 2523SOL    HW310123   2.180   0.035   4.228
 2523SOL    MW410124   2.260   0.069   4.235
 2524SOL     OW10125   2.241   0.357   4.185
 2524SOL    HW210126   2.256   0.267   4.215
 2524SOL    HW310127   2.241   0.351   4.090
 2524SOL    MW410128   2.243   0.344   4.177
 2525SOL     OW10129   2.476   0.503   4.245
 2525SOL    HW210130   2.460   0.542   4.331
 2525SOL    HW310131   2.395   0.458   4.224
 2525SOL    MW410132   2.463   0.502   4.254
 2526SOL     OW10133   2.461   0.761   4.154
 2526SOL    HW210134   2.456   0.670   4.183
 2526SOL    HW310135   2.478   0.756   4.060
 2526SOL    MW410136   2.462   0.749   4.146
 2527SOL     OW10137   2.218   0.892   4.214
 2527SOL    HW210138   2.228   0.914   4.307
 2527SOL    HW310139   2.299   0.847   4.191
 2527SOL    MW410140   2.230   0.889   4.223
 2528SOL     OW10141   2.233   1.143   4.123
 2528SOL    HW210142   2.312   1.189   4.151
 2528SOL    HW310143   2.242   1.056   4.160
 2528SOL    MW410144   2.245   1.138   4.131
 2529SOL     OW10145   2.469   1.266   4.240
 2529SOL    HW210146   2.492   1.265   4.333
 2529SOL    HW310147   2.545   1.229   4.197
 2529SOL    MW410148   2.482   1.261   4.247
 2530SOL     OW10149   2.479   1.525   4.161
 2530SOL    HW210150   2.466   1.433   4.179
 2530SOL    HW310151   2.476   1.532   4.065
 2530SOL    MW410152   2.477   1.514   4.151
 2531SOL     OW10153   2.233   1.620   4.273
 2531SOL    HW210154   2.323   1.613   4.242
 2531SOL    HW310155   2.199   1.700   4.233
 2531SOL    MW410156   2.241   1.630   4.264
 2532SOL     OW10157   2.177   1.894   4.190
 2532SOL    HW210158   2.253   1.948   4.214
 2532SOL    HW310159   2.108   1.924   4.248
 2532SOL    MW410160   2.178   1.905   4.200
 2533SOL     OW10161   2.429   2.014   4.292
 2533SOL    HW210162   2.432   1.974   4.378
 2533SOL    HW310163   2.514   1.993   4.252
 2533SOL    MW410164   2.441   2.006   4.298
 2534SOL     OW10165   2.629   2.465   4.229
 2534SOL    HW210166   2.594   2.387   4.272
 2534SOL    HW310167   2.565   2.486   4.161
 2534SOL    MW410168   2.616   2.457   4.226
 2535SOL     OW10169   2.401   2.418   4.554
 2535SOL    HW210170   2.364   2.472   4.485
 2535SOL    HW310171   2.480   2.465   4.581
 2535SOL    MW410172   2.407   2.431   4.549
 2536SOL     OW10173   1.977   2.584   4.246
 2536SOL    HW210174   2.032   2.639   4.301
 2536SOL    HW310175   2.034   2.510   4.221
 2536SOL    MW410176   1.992   2.581   4.250
 2537SOL     OW10177   2.471   2.791   4.420
 2537SOL    HW210178   2.435   2.718   4.370
 2537SOL    HW310179   2.396   2.825   4.470
 2537SOL    MW410180   2.456   2.786   4.420
 2538SOL     OW10181   2.384   3.057   4.157
 2538SOL    HW210182   2.472   3.024   4.176
 2538SOL    HW310183   2.352   3.090   4.241
 2538SOL    MW410184   2.391   3.057   4.171
 2539SOL     OW10185   2.028   3.029   4.096
 2539SOL    HW210186   2.030   3.062   4.006
 2539SOL    HW310187   2.099   2.965   4.099
 2539SOL    MW410188   2.038   3.025   4.084
 2540SOL     OW10189   2.233   3.538   4.208
 2540SOL    HW210190   2.230   3.462   4.266
 2540SOL    HW310191   2.165   3.597   4.241
 2540SOL    MW410192   2.223   3.536   4.220
 2541SOL     OW10193   2.488   3.634   4.253
 2541SOL    HW210194   2.405   3.591   4.230
 2541SOL    HW310195   2.478   3.724   4.221
 2541SOL    MW410196   2.475   3.640   4.245
 2542SOL     OW10197   2.486   3.888   4.177
 2542SOL    HW210198   2.571   3.926   4.201
 2542SOL    HW310199   2.486   3.890   4.081
 2542SOL    MW410200   2.497   3.893   4.167
 2543SOL     OW10201   2.263   4.018   4.266
 2543SOL    HW210202   2.338   3.965   4.239
 2543SOL    HW310203   2.189   3.980   4.219
 2543SOL    MW410204   2.263   4.006   4.256
 2544SOL     OW10205   2.237   4.266   4.152
 2544SOL    HW210206   2.238   4.172   4.172
 2544SOL    HW310207   2.158   4.298   4.195
 2544SOL    MW410208   2.226   4.258   4.160
 2545SOL     OW10209   2.485   4.384   4.188
 2545SOL    HW210210   2.549   4.314   4.175
 2545SOL    HW310211   2.402   4.346   4.159
 2545SOL    MW410212   2.482   4.370   4.183
 2546SOL     OW10213   2.896   4.656   4.162
 2546SOL    HW210214   2.976   4.695   4.196
 2546SOL    HW310215   2.899   4.565   4.190
 2546SOL    MW410216   2.907   4.649   4.170
 2547SOL     OW10217   2.650   0.095   4.272
 2547SOL    HW210218   2.650   0.176   4.220
 2547SOL    HW310219   2.727   0.047   4.243
 2547SOL    MW410220   2.660   0.099   4.262
 2548SOL     OW10221   2.674   0.343   4.136
 2548SOL    HW210222   2.608   0.405   4.167
 2548SOL    HW310223   2.675   0.354   4.041
 2548SOL    MW410224   2.665   0.353   4.128
 2549SOL     OW10225   2.903   0.441   4.249
 2549SOL    HW210226   2.892   0.535   4.234
 2549SOL    HW310227   2.819   0.403   4.222
 2549SOL    MW410228   2.890   0.448   4.243
 2550SOL     OW10229   2.891   0.721   4.169
 2550SOL    HW210230   2.966   0.758   4.215
 2550SOL    HW310231   2.902   0.750   4.078
 2550SOL    MW410232   2.902   0.730   4.163
 2551SOL     OW10233   2.681   0.882   4.254
 2551SOL    HW210234   2.753   0.822   4.233
 2551SOL    HW310235   2.603   0.840   4.217
 2551SOL    MW410236   2.680   0.869   4.246
 2552SOL     OW10237   2.685   1.127   4.134
 2552SOL    HW210238   2.688   1.042   4.177
 2552SOL    HW310239   2.698   1.107   4.041
 2552SOL    MW410240   2.687   1.113   4.128
 2553SOL     OW10241   2.897   1.234   4.258
 2553SOL    HW210242   2.977   1.201   4.218
 2553SOL    HW310243   2.827   1.197   4.205
 2553SOL    MW410244   2.898   1.225   4.246
 2554SOL     OW10245   2.933   1.498   4.106
 2554SOL    HW210246   2.995   1.560   4.144
 2554SOL    HW310247   2.925   1.428   4.171
 2554SOL    MW410248   2.940   1.497   4.120
 2555SOL     OW10249   2.723   1.650   4.215
 2555SOL    HW210250   2.792   1.600   4.173
 2555SOL    HW310251   2.642   1.607   4.188
 2555SOL    MW410252   2.721   1.638   4.206
 2556SOL     OW10253   2.688   1.934   4.168
 2556SOL    HW210254   2.696   1.844   4.198
 2556SOL    HW310255   2.694   1.929   4.073
 2556SOL    MW410256   2.690   1.922   4.160
 2557SOL     OW10257   2.907   2.070   4.265
 2557SOL    HW210258   2.906   2.158   4.226
 2557SOL    HW310259   2.824   2.032   4.239
 2557SOL    MW410260   2.896   2.077   4.256
 2558SOL     OW10261   2.882   2.334   4.160
 2558SOL    HW210262   2.951   2.393   4.191
 2558SOL    HW310263   2.802   2.368   4.200
 2558SOL    MW410264   2.880   2.346   4.170
 2559SOL     OW10265   2.716   2.763   4.150
 2559SOL    HW210266   2.673   2.827   4.207
 2559SOL    HW310267   2.722   2.684   4.204
 2559SOL    MW410268   2.711   2.761   4.165
 2560SOL     OW10269   2.624   2.985   4.285
 2560SOL    HW210270   2.581   2.931   4.352
 2560SOL    HW310271   2.654   3.063   4.332
 2560SOL    MW410272   2.622   2.988   4.300
 2561SOL     OW10273   2.943   2.967   4.110
 2561SOL    HW210274   2.874   2.903   4.127
 2561SOL    HW310275   2.914   3.014   4.032
 2561SOL    MW410276   2.930   2.965   4.102
 2562SOL     OW10277   2.954   3.132   4.330
 2562SOL    HW210278   2.939   3.070   4.402
 2562SOL    HW310279   2.947   3.078   4.251
 2562SOL    MW410280   2.951   3.117   4.329
 2563SOL     OW10281   2.716   3.246   4.373
 2563SOL    HW210282   2.720   3.306   4.448
 2563SOL    HW310283   2.803   3.207   4.369
 2563SOL    MW410284   2.728   3.249   4.383
 2564SOL     OW10285   2.663   3.444   4.160
 2564SOL    HW210286   2.663   3.371   4.222
 2564SOL    HW310287   2.598   3.505   4.194
 2564SOL    MW410288   2.655   3.443   4.172
 2565SOL     OW10289   2.904   3.558   4.222
 2565SOL    HW210290   2.892   3.564   4.317
 2565SOL    HW310291   2.827   3.509   4.192
 2565SOL    MW410292   2.892   3.552   4.231
 2566SOL     OW10293   2.938   3.818   4.124
 2566SOL    HW210294   3.019   3.840   4.171
 2566SOL    HW310295   2.918   3.728   4.151
 2566SOL    MW410296   2.946   3.809   4.134
 2567SOL     OW10297   2.732   3.986   4.268
 2567SOL    HW210298   2.731   4.075   4.233
 2567SOL    HW310299   2.795   3.940   4.214
 2567SOL    MW410300   2.740   3.992   4.256
 2568SOL     OW10301   2.696   4.223   4.149
 2568SOL    HW210302   2.763   4.285   4.180
 2568SOL    HW310303   2.708   4.220   4.054
 2568SOL    MW410304   2.707   4.231   4.141
 2569SOL     OW10305   2.911   4.381   4.236
 2569SOL    HW210306   2.894   4.336   4.319
 2569SOL    HW310307   2.982   4.331   4.196
 2569SOL    MW410308   2.918   4.368   4.242
 2570SOL     OW10309   3.363   4.542   4.124
 2570SOL    HW210310   3.429   4.589   4.175
 2570SOL    HW310311   3.377   4.450   4.145
 2570SOL    MW410312   3.374   4.536   4.133
 2571SOL     OW10313   3.173   0.068   4.215
 2571SOL    HW210314   3.171   0.048   4.309
 2571SOL    HW310315   3.234   0.004   4.179
 2571SOL    MW410316   3.181   0.057   4.223
 2572SOL     OW10317   3.137   0.326   4.151
 2572SOL    HW210318   3.142   0.236   4.182
 2572SOL    HW310319   3.052   0.357   4.180
 2572SOL    MW410320   3.126   0.318   4.159
 2573SOL     OW10321   3.322   0.494   4.263
 2573SOL    HW210322   3.401   0.442   4.251
 2573SOL    HW310323   3.252   0.438   4.229
 2573SOL    MW410324   3.323   0.479   4.257
 2574SOL     OW10325   3.352   0.754   4.173
 2574SOL    HW210326   3.266   0.790   4.195
 2574SOL    HW310327   3.344   0.660   4.188
 2574SOL    MW410328   3.340   0.746   4.178
 2575SOL     OW10329   3.116   0.859   4.271
 2575SOL    HW210330   3.113   0.884   4.363
 2575SOL    HW310331   3.136   0.940   4.224
 2575SOL    MW410332   3.118   0.873   4.277
 2576SOL     OW10333   3.139   1.118   4.138
 2576SOL    HW210334   3.207   1.166   4.185
 2576SOL    HW310335   3.172   1.115   4.048
 2576SOL    MW410336   3.152   1.124   4.132
 2577SOL     OW10337   3.369   1.184   4.294
 2577SOL    HW210338   3.409   1.144   4.371
 2577SOL    HW310339   3.360   1.277   4.317
 2577SOL    MW410340   3.373   1.191   4.307
 2578SOL     OW10341   3.354   1.442   4.381
 2578SOL    HW210342   3.397   1.468   4.300
 2578SOL    HW310343   3.421   1.453   4.449
 2578SOL    MW410344   3.368   1.447   4.380
 2579SOL     OW10345   3.141   1.625   4.232
 2579SOL    HW210346   3.148   1.627   4.327
 2579SOL    HW310347   3.152   1.716   4.205
 2579SOL    MW410348   3.144   1.637   4.241
 2580SOL     OW10349   3.140   1.893   4.134
 2580SOL    HW210350   3.184   1.965   4.180
 2580SOL    HW310351   3.046   1.910   4.147
 2580SOL    MW410352   3.133   1.905   4.142
 2581SOL     OW10353   3.293   2.113   4.242
 2581SOL    HW210354   3.382   2.081   4.226
 2581SOL    HW310355   3.294   2.203   4.209
 2581SOL    MW410356   3.305   2.121   4.235
 2582SOL     OW10357   3.314   2.377   4.133
 2582SOL    HW210358   3.390   2.429   4.160
 2582SOL    HW310359   3.334   2.351   4.043
 2582SOL    MW410360   3.327   2.381   4.125
 2583SOL     OW10361   3.098   2.530   4.233
 2583SOL    HW210362   3.113   2.621   4.206
 2583SOL    HW310363   3.172   2.482   4.197
 2583SOL    MW410364   3.110   2.536   4.225
 2584SOL     OW10365   3.181   2.807   4.156
 2584SOL    HW210366   3.262   2.851   4.181
 2584SOL    HW310367   3.114   2.876   4.160
 2584SOL    MW410368   3.183   2.822   4.160
 2585SOL     OW10369   3.434   2.859   4.276
 2585SOL    HW210370   3.504   2.806   4.239
 2585SOL    HW310371   3.458   2.949   4.253
 2585SOL    MW410372   3.447   2.864   4.268
 2586SOL     OW10373   3.433   3.118   4.190
 2586SOL    HW210374   3.351   3.147   4.230
 2586SOL    HW310375   3.421   3.136   4.097
 2586SOL    MW410376   3.420   3.124   4.183
 2587SOL     OW10377   3.189   3.256   4.288
 2587SOL    HW210378   3.168   3.329   4.229
 2587SOL    HW310379   3.104   3.222   4.316
 2587SOL    MW410380   3.175   3.261   4.284
 2588SOL     OW10381   3.153   3.485   4.125
 2588SOL    HW210382   3.064   3.512   4.147
 2588SOL    HW310383   3.154   3.479   4.030
 2588SOL    MW410384   3.141   3.488   4.116
 2589SOL     OW10385   3.397   3.623   4.243
 2589SOL    HW210386   3.410   3.646   4.335
 2589SOL    HW310387   3.314   3.575   4.242
 2589SOL    MW410388   3.388   3.619   4.255
 2590SOL     OW10389   3.357   3.878   4.157
 2590SOL    HW210390   3.355   3.785   4.179
 2590SOL    HW310391   3.366   3.880   4.062
 2590SOL    MW410392   3.358   3.866   4.148
 2591SOL     OW10393   3.130   3.976   4.270
 2591SOL    HW210394   3.134   4.004   4.362
 2591SOL    HW310395   3.221   3.955   4.247
 2591SOL    MW410396   3.143   3.977   4.279
 2592SOL     OW10397   3.142   4.207   4.119
 2592SOL    HW210398   3.232   4.236   4.136
 2592SOL    HW310399   3.137   4.120   4.159
 2592SOL    MW410400   3.153   4.199   4.126
 2593SOL     OW10401   3.387   4.283   4.191
 2593SOL    HW210402   3.394   4.299   4.285
 2593SOL    HW310403   3.476   4.261   4.164
 2593SOL    MW410404   3.400   4.282   4.199
 2594SOL     OW10405   3.792   4.650   4.155
 2594SOL    HW210406   3.869   4.697   4.190
 2594SOL    HW310407   3.789   4.675   4.063
 2594SOL    MW410408   3.802   4.659   4.148
 2595SOL     OW10409   3.528   0.067   4.227
 2595SOL    HW210410   3.523   0.163   4.227
 2595SOL    HW310411   3.620   0.048   4.209
 2595SOL    MW410412   3.539   0.077   4.225
 2596SOL     OW10413   3.566   0.352   4.217
 2596SOL    HW210414   3.653   0.379   4.248
 2596SOL    HW310415   3.577   0.342   4.123
 2596SOL    MW410416   3.579   0.354   4.209
 2597SOL     OW10417   3.831   0.474   4.314
 2597SOL    HW210418   3.832   0.500   4.406
 2597SOL    HW310419   3.812   0.555   4.266
 2597SOL    MW410420   3.828   0.488   4.320
 2598SOL     OW10421   3.823   0.721   4.180
 2598SOL    HW210422   3.741   0.768   4.194
 2598SOL    HW310423   3.838   0.726   4.085
 2598SOL    MW410424   3.814   0.728   4.169
 2599SOL     OW10425   3.598   0.860   4.236
 2599SOL    HW210426   3.589   0.951   4.205
 2599SOL    HW310427   3.513   0.820   4.221
 2599SOL    MW410428   3.586   0.867   4.230
 2600SOL     OW10429   3.604   1.120   4.151
 2600SOL    HW210430   3.521   1.159   4.179
 2600SOL    HW310431   3.606   1.134   4.057
 2600SOL    MW410432   3.593   1.127   4.143
 2601SOL     OW10433   3.832   1.249   4.184
 2601SOL    HW210434   3.764   1.185   4.168
 2601SOL    HW310435   3.845   1.248   4.278
 2601SOL    MW410436   3.825   1.241   4.194
 2602SOL     OW10437   3.771   1.516   4.102
 2602SOL    HW210438   3.802   1.427   4.124
 2602SOL    HW310439   3.800   1.569   4.176
 2602SOL    MW410440   3.779   1.511   4.115
 2603SOL     OW10441   3.544   1.985   4.189
 2603SOL    HW210442   3.544   1.953   4.099
 2603SOL    HW310443   3.527   1.908   4.242
 2603SOL    MW410444   3.542   1.971   4.184
 2604SOL     OW10445   3.498   1.527   4.166
 2604SOL    HW210446   3.590   1.508   4.149
 2604SOL    HW310447   3.461   1.546   4.080
 2604SOL    MW410448   3.505   1.527   4.152
 2605SOL     OW10449   3.775   2.088   4.268
 2605SOL    HW210450   3.765   2.100   4.363
 2605SOL    HW310451   3.689   2.059   4.238
 2605SOL    MW410452   3.763   2.086   4.277
 2606SOL     OW10453   3.833   2.357   4.158
 2606SOL    HW210454   3.809   2.270   4.188
 2606SOL    HW310455   3.843   2.348   4.064
 2606SOL    MW410456   3.831   2.344   4.150
 2607SOL     OW10457   3.572   2.485   4.244
 2607SOL    HW210458   3.568   2.490   4.339
 2607SOL    HW310459   3.652   2.435   4.226
 2607SOL    MW410460   3.582   2.479   4.254
 2608SOL     OW10461   3.665   2.736   4.157
 2608SOL    HW210462   3.626   2.654   4.187
 2608SOL    HW310463   3.643   2.739   4.063
 2608SOL    MW410464   3.657   2.725   4.148
 2609SOL     OW10465   3.844   2.916   4.294
 2609SOL    HW210466   3.819   2.921   4.386
 2609SOL    HW310467   3.777   2.861   4.253
 2609SOL    MW410468   3.832   2.909   4.300
 2610SOL     OW10469   3.866   3.135   4.145
 2610SOL    HW210470   3.866   3.052   4.192
 2610SOL    HW310471   3.874   3.111   4.053
 2610SOL    MW410472   3.867   3.121   4.139
 2611SOL     OW10473   3.644   3.298   4.237
 2611SOL    HW210474   3.717   3.256   4.191
 2611SOL    HW310475   3.571   3.237   4.226
 2611SOL    MW410476   3.644   3.284   4.229
 2612SOL     OW10477   3.620   3.544   4.114
 2612SOL    HW210478   3.635   3.458   4.153
 2612SOL    HW310479   3.547   3.581   4.165
 2612SOL    MW410480   3.612   3.538   4.126
 2613SOL     OW10481   3.840   3.648   4.301
 2613SOL    HW210482   3.915   3.597   4.270
 2613SOL    HW310483   3.763   3.595   4.278
 2613SOL    MW410484   3.839   3.634   4.294
 2614SOL     OW10485   3.795   3.889   4.177
 2614SOL    HW210486   3.702   3.898   4.198
 2614SOL    HW310487   3.817   3.800   4.204
 2614SOL    MW410488   3.786   3.878   4.183
 2615SOL     OW10489   3.566   3.966   4.309
 2615SOL    HW210490   3.519   3.965   4.393
 2615SOL    HW310491   3.504   3.929   4.246
 2615SOL    MW410492   3.552   3.961   4.312
 2616SOL     OW10493   3.640   4.207   4.166
 2616SOL    HW210494   3.700   4.265   4.213
 2616SOL    HW310495   3.633   4.129   4.221
 2616SOL    MW410496   3.647   4.204   4.179
 2617SOL     OW10497   3.836   4.400   4.249
 2617SOL    HW210498   3.895   4.359   4.186
 2617SOL    HW310499   3.815   4.485   4.210
 2617SOL    MW410500   3.841   4.406   4.235
 2618SOL     OW10501   4.238   4.653   4.180
 2618SOL    HW210502   4.238   4.568   4.225
 2618SOL    HW310503   4.327   4.687   4.193
 2618SOL    MW410504   4.250   4.646   4.188
 2619SOL     OW10505   4.014   0.106   4.260
 2619SOL    HW210506   4.023   0.198   4.235
 2619SOL    HW310507   4.095   0.065   4.228
 2619SOL    MW410508   4.026   0.113   4.252
 2620SOL     OW10509   4.062   0.369   4.192
 2620SOL    HW210510   4.142   0.414   4.222
 2620SOL    HW310511   3.991   0.412   4.240
 2620SOL    MW410512   4.063   0.381   4.203
 2621SOL     OW10513   4.298   0.496   4.274
 2621SOL    HW210514   4.300   0.583   4.234
 2621SOL    HW310515   4.366   0.447   4.227
 2621SOL    MW410516   4.307   0.501   4.262
 2622SOL     OW10517   4.275   0.764   4.160
 2622SOL    HW210518   4.195   0.809   4.188
 2622SOL    HW310519   4.282   0.783   4.067
 2622SOL    MW410520   4.265   0.772   4.152
 2623SOL     OW10521   4.044   0.882   4.245
 2623SOL    HW210522   4.027   0.962   4.195
 2623SOL    HW310523   3.964   0.830   4.235
 2623SOL    MW410524   4.031   0.886   4.237
 2624SOL     OW10525   4.071   1.130   4.122
 2624SOL    HW210526   4.137   1.189   4.158
 2624SOL    HW310527   3.988   1.174   4.141
 2624SOL    MW410528   4.069   1.144   4.130
 2625SOL     OW10529   4.278   1.287   4.246
 2625SOL    HW210530   4.291   1.274   4.340
 2625SOL    HW310531   4.337   1.225   4.205
 2625SOL    MW410532   4.287   1.277   4.253
 2626SOL     OW10533   4.256   1.550   4.217
 2626SOL    HW210534   4.263   1.456   4.236
 2626SOL    HW310535   4.247   1.554   4.121
 2626SOL    MW410536   4.256   1.538   4.207
 2627SOL     OW10537   4.090   1.723   4.358
 2627SOL    HW210538   4.120   1.722   4.449
 2627SOL    HW310539   4.153   1.668   4.312
 2627SOL    MW410540   4.102   1.716   4.364
 2628SOL     OW10541   3.987   1.921   4.178
 2628SOL    HW210542   4.002   1.876   4.261
 2628SOL    HW310543   3.923   1.989   4.198
 2628SOL    MW410544   3.981   1.924   4.191
 2629SOL     OW10545   0.014   1.862   4.111
 2629SOL    HW210546   0.079   1.924   4.143
 2629SOL    HW310547  -0.068   1.889   4.153
 2629SOL    MW410548   0.012   1.874   4.120
 2630SOL     OW10549   4.277   2.260   4.175
 2630SOL    HW210550   4.217   2.293   4.242
 2630SOL    HW310551   4.270   2.165   4.181
 2630SOL    MW410552   4.268   2.252   4.184
 2631SOL     OW10553   3.966   2.530   4.347
 2631SOL    HW210554   4.037   2.469   4.366
 2631SOL    HW310555   3.901   2.478   4.301
 2631SOL    MW410556   3.967   2.515   4.344
 2632SOL     OW10557   4.047   2.741   4.186
 2632SOL    HW210558   4.028   2.658   4.229
 2632SOL    HW310559   3.980   2.801   4.218
 2632SOL    MW410560   4.036   2.738   4.196
 2633SOL     OW10561   4.298   2.852   4.238
 2633SOL    HW210562   4.222   2.802   4.207
 2633SOL    HW310563   4.373   2.797   4.218
 2633SOL    MW410564   4.298   2.838   4.231
 2634SOL     OW10565   4.271   3.110   4.131
 2634SOL    HW210566   4.277   3.022   4.168
 2634SOL    HW310567   4.270   3.097   4.036
 2634SOL    MW410568   4.272   3.097   4.123
 2635SOL     OW10569   4.081   3.237   4.290
 2635SOL    HW210570   4.154   3.200   4.242
 2635SOL    HW310571   4.003   3.208   4.242
 2635SOL    MW410572   4.080   3.228   4.278
 2636SOL     OW10573   4.042   3.499   4.190
 2636SOL    HW210574   4.063   3.409   4.214
 2636SOL    HW310575   4.032   3.498   4.095
 2636SOL    MW410576   4.043   3.487   4.181
 2637SOL     OW10577   4.300   3.594   4.261
 2637SOL    HW210578   4.291   3.688   4.275
 2637SOL    HW310579   4.213   3.566   4.231
 2637SOL    MW410580   4.287   3.602   4.259
 2638SOL     OW10581   4.297   3.905   4.184
 2638SOL    HW210582   4.214   3.947   4.209
 2638SOL    HW310583   4.287   3.889   4.090
 2638SOL    MW410584   4.284   3.909   4.175
 2639SOL     OW10585   4.035   4.013   4.239
 2639SOL    HW210586   4.048   3.987   4.330
 2639SOL    HW310587   3.964   3.958   4.207
 2639SOL    MW410588   4.028   4.003   4.247
 2640SOL     OW10589   4.073   4.276   4.159
 2640SOL    HW210590   4.127   4.316   4.227
 2640SOL    HW310591   4.065   4.184   4.186
 2640SOL    MW410592   4.079   4.269   4.171
 2641SOL     OW10593   4.082   4.210   4.613
 2641SOL    HW210594   4.034   4.171   4.686
 2641SOL    HW310595   4.020   4.272   4.573
 2641SOL    MW410596   4.067   4.213   4.617
 2642SOL     OW10597   4.375   0.221   4.837
 2642SOL    HW210598   4.451   0.276   4.817
 2642SOL    HW310599   4.303   0.263   4.790
 2642SOL    MW410600   4.375   0.234   4.828
 2643SOL     OW10601   4.306   4.411   4.592
 2643SOL    HW210602   4.301   4.496   4.637
 2643SOL    HW310603   4.229   4.363   4.623
 2643SOL    MW410604   4.295   4.416   4.602
 2644SOL     OW10605   4.059   0.113   4.548
 2644SOL    HW210606   4.072   0.120   4.453
 2644SOL    HW310607   3.964   0.105   4.558
 2644SOL    MW410608   4.048   0.113   4.536
 2645SOL     OW10609   4.164   1.740   4.614
 2645SOL    HW210610   4.251   1.762   4.649
 2645SOL    HW310611   4.152   1.648   4.638
 2645SOL    MW410612   4.174   1.731   4.622
 2646SOL     OW10613   0.537   0.017   4.539
 2646SOL    HW210614   0.453   0.002   4.583
 2646SOL    HW310615   0.574  -0.070   4.527
 2646SOL    MW410616   0.530   0.004   4.543
 2647SOL     OW10617   0.241   0.703   4.645
 2647SOL    HW210618   0.253   0.636   4.577
 2647SOL    HW310619   0.261   0.659   4.727
 2647SOL    MW410620   0.245   0.689   4.647
 2648SOL     OW10621   4.269   0.809   4.614
 2648SOL    HW210622   4.282   0.715   4.595
 2648SOL    HW310623   4.357   0.847   4.604
 2648SOL    MW410624   4.283   0.801   4.610
 2649SOL     OW10625   0.669   1.322   4.544
 2649SOL    HW210626   0.629   1.401   4.580
 2649SOL    HW310627   0.607   1.252   4.564
 2649SOL    MW410628   0.655   1.323   4.551
 2650SOL     OW10629   1.215   2.109   4.458
 2650SOL    HW210630   1.303   2.071   4.464
 2650SOL    HW310631   1.193   2.131   4.549
 2650SOL    MW410632   1.224   2.107   4.471
 2651SOL     OW10633   4.238   1.242   4.522
 2651SOL    HW210634   4.192   1.158   4.520
 2651SOL    HW310635   4.326   1.220   4.552
 2651SOL    MW410636   4.244   1.228   4.526
 2652SOL     OW10637   0.107   1.802   4.557
 2652SOL    HW210638   0.057   1.751   4.494
 2652SOL    HW310639   0.133   1.881   4.510
 2652SOL    MW410640   0.104   1.806   4.543
 2653SOL     OW10641   0.447   1.691   4.278
 2653SOL    HW210642   0.367   1.651   4.244
 2653SOL    HW310643   0.517   1.630   4.255
 2653SOL    MW410644   0.446   1.678   4.270
 2654SOL     OW10645   0.115   2.053   4.427
 2654SOL    HW210646   0.022   2.070   4.441
 2654SOL    HW310647   0.159   2.111   4.489
 2654SOL    MW410648   0.109   2.063   4.437
 2655SOL     OW10649   4.160   2.332   4.449
 2655SOL    HW210650   4.204   2.388   4.513
 2655SOL    HW310651   4.085   2.296   4.496
 2655SOL    MW410652   4.155   2.335   4.463
 2656SOL     OW10653   0.800   3.048   4.733
 2656SOL    HW210654   0.795   2.985   4.661
 2656SOL    HW310655   0.803   2.994   4.812
 2656SOL    MW410656   0.800   3.033   4.734
 2657SOL     OW10657   0.362   3.260   4.493
 2657SOL    HW210658   0.355   3.355   4.483
 2657SOL    HW310659   0.422   3.248   4.566
 2657SOL    MW410660   0.369   3.271   4.502
 2658SOL     OW10661   0.060   2.466   4.556
 2658SOL    HW210662   0.064   2.445   4.463
 2658SOL    HW310663   0.118   2.541   4.567
 2658SOL    MW410664   0.068   2.473   4.545
 2659SOL     OW10665   4.101   3.394   4.732
 2659SOL    HW210666   4.051   3.331   4.680
 2659SOL    HW310667   4.148   3.340   4.796
 2659SOL    MW410668   4.100   3.378   4.734
 2660SOL     OW10669   0.570   3.639   4.446
 2660SOL    HW210670   0.582   3.728   4.480
 2660SOL    HW310671   0.484   3.613   4.477
 2660SOL    MW410672   0.560   3.648   4.455
 2661SOL     OW10673   4.308   3.822   4.660
 2661SOL    HW210674   4.246   3.862   4.599
 2661SOL    HW310675   4.310   3.730   4.634
 2661SOL    MW410676   4.300   3.815   4.649
 2662SOL     OW10677   0.044   0.088   4.522
 2662SOL    HW210678  -0.026   0.054   4.578
 2662SOL    HW310679   0.047   0.181   4.541
 2662SOL    MW410680   0.035   0.096   4.532
 2663SOL     OW10681   3.906   0.523   4.571
 2663SOL    HW210682   3.821   0.487   4.595
 2663SOL    HW310683   3.894   0.618   4.576
 2663SOL    MW410684   3.894   0.531   4.575
 2664SOL     OW10685   4.032   3.833   4.871
 2664SOL    HW210686   4.124   3.838   4.846
 2664SOL    HW310687   3.996   3.919   4.849
 2664SOL    MW410688   4.039   3.845   4.865
 2665SOL     OW10689   3.923   4.079   4.803
 2665SOL    HW210690   3.894   4.132   4.877
 2665SOL    HW310691   3.842   4.060   4.755
 2665SOL    MW410692   3.908   4.084   4.806
 2666SOL     OW10693   0.645   4.434   4.507
 2666SOL    HW210694   0.650   4.429   4.412
 2666SOL    HW310695   0.561   4.392   4.529
 2666SOL    MW410696   0.634   4.428   4.497
 2667SOL     OW10697   4.104   0.821   4.831
 2667SOL    HW210698   4.166   0.821   4.758
 2667SOL    HW310699   4.140   0.885   4.893
 2667SOL    MW410700   4.117   0.830   4.829
 2668SOL     OW10701   1.148   0.833   4.671
 2668SOL    HW210702   1.165   0.739   4.663
 2668SOL    HW310703   1.061   0.844   4.633
 2668SOL    MW410704   1.138   0.822   4.665
 2669SOL     OW10705   0.722   0.227   4.579
 2669SOL    HW210706   0.809   0.201   4.607
 2669SOL    HW310707   0.677   0.145   4.559
 2669SOL    MW410708   0.727   0.213   4.580
 2670SOL     OW10709   0.869   0.898   4.583
 2670SOL    HW210710   0.882   0.880   4.490
 2670SOL    HW310711   0.810   0.828   4.613
 2670SOL    MW410712   0.863   0.886   4.575
 2671SOL     OW10713   0.466   0.875   4.596
 2671SOL    HW210714   0.382   0.832   4.613
 2671SOL    HW310715   0.470   0.882   4.501
 2671SOL    MW410716   0.455   0.870   4.586
 2672SOL     OW10717   2.079   1.145   4.478
 2672SOL    HW210718   2.028   1.161   4.399
 2672SOL    HW310719   2.142   1.217   4.482
 2672SOL    MW410720   2.081   1.156   4.468
 2673SOL     OW10721   0.327   1.629   4.552
 2673SOL    HW210722   0.252   1.689   4.556
 2673SOL    HW310723   0.366   1.644   4.466
 2673SOL    MW410724   0.323   1.639   4.541
 2674SOL     OW10725   1.334   1.211   4.526
 2674SOL    HW210726   1.329   1.127   4.571
 2674SOL    HW310727   1.263   1.263   4.563
 2674SOL    MW410728   1.324   1.207   4.536
 2675SOL     OW10729   0.965   1.627   4.538
 2675SOL    HW210730   0.902   1.652   4.606
 2675SOL    HW310731   1.044   1.677   4.559
 2675SOL    MW410732   0.967   1.637   4.550
 2676SOL     OW10733   0.736   2.106   4.560
 2676SOL    HW210734   0.772   2.194   4.562
 2676SOL    HW310735   0.800   2.053   4.608
 2676SOL    MW410736   0.749   2.110   4.566
 2677SOL     OW10737   1.141   1.843   4.559
 2677SOL    HW210738   1.213   1.781   4.544
 2677SOL    HW310739   1.180   1.929   4.545
 2677SOL    MW410740   1.156   1.846   4.555
 2678SOL     OW10741   0.469   2.264   4.548
 2678SOL    HW210742   0.549   2.214   4.564
 2678SOL    HW310743   0.477   2.293   4.457
 2678SOL    MW410744   0.481   2.261   4.538
 2679SOL     OW10745   1.058   2.719   4.729
 2679SOL    HW210746   1.082   2.738   4.638
 2679SOL    HW310747   1.137   2.737   4.779
 2679SOL    MW410748   1.071   2.724   4.724
 2680SOL     OW10749   0.777   2.629   4.680
 2680SOL    HW210750   0.857   2.649   4.728
 2680SOL    HW310751   0.785   2.537   4.658
 2680SOL    MW410752   0.788   2.620   4.683
 2681SOL     OW10753   0.923   3.282   4.555
 2681SOL    HW210754   0.868   3.359   4.567
 2681SOL    HW310755   0.884   3.216   4.613
 2681SOL    MW410756   0.911   3.283   4.564
 2682SOL     OW10757   0.730   3.478   4.604
 2682SOL    HW210758   0.679   3.533   4.544
 2682SOL    HW310759   0.790   3.539   4.647
 2682SOL    MW410760   0.731   3.493   4.601
 2683SOL     OW10761   1.375   0.091   4.562
 2683SOL    HW210762   1.320   0.040   4.622
 2683SOL    HW310763   1.464   0.077   4.593
 2683SOL    MW410764   1.379   0.082   4.574
 2684SOL     OW10765   0.228   2.705   4.556
 2684SOL    HW210766   0.310   2.678   4.597
 2684SOL    HW310767   0.256   2.760   4.482
 2684SOL    MW410768   0.243   2.709   4.552
 2685SOL     OW10769   0.082   3.398   4.610
 2685SOL    HW210770   0.059   3.310   4.582
 2685SOL    HW310771  -0.002   3.445   4.615
 2685SOL    MW410772   0.068   3.392   4.607
 2686SOL     OW10773   1.263   3.608   4.805
 2686SOL    HW210774   1.242   3.519   4.776
 2686SOL    HW310775   1.179   3.646   4.828
 2686SOL    MW410776   1.249   3.601   4.805
 2687SOL     OW10777   0.057   4.278   4.657
 2687SOL    HW210778   0.048   4.187   4.629
 2687SOL    HW310779  -0.025   4.320   4.630
 2687SOL    MW410780   0.045   4.272   4.650
 2688SOL     OW10781   0.028   3.982   4.604
 2688SOL    HW210782   0.103   3.924   4.616
 2688SOL    HW310783  -0.049   3.929   4.625
 2688SOL    MW410784   0.028   3.967   4.608
 2689SOL     OW10785   0.272   4.578   4.566
 2689SOL    HW210786   0.210   4.648   4.547
 2689SOL    HW310787   0.250   4.548   4.654
 2689SOL    MW410788   0.261   4.583   4.575
 2690SOL     OW10789   0.996   0.081   4.555
 2690SOL    HW210790   0.972   0.092   4.463
 2690SOL    HW310791   1.044  -0.002   4.557
 2690SOL    MW410792   0.999   0.071   4.543
 2691SOL     OW10793   1.142   4.473   4.586
 2691SOL    HW210794   1.224   4.426   4.599
 2691SOL    HW310795   1.074   4.407   4.602
 2691SOL    MW410796   1.144   4.458   4.590
 2692SOL     OW10797   0.540   0.419   4.508
 2692SOL    HW210798   0.596   0.453   4.438
 2692SOL    HW310799   0.592   0.349   4.547
 2692SOL    MW410800   0.555   0.414   4.504
 2693SOL     OW10801   1.396   0.923   4.573
 2693SOL    HW210802   1.379   0.905   4.481
 2693SOL    HW310803   1.314   0.902   4.617
 2693SOL    MW410804   1.383   0.918   4.567
 2694SOL     OW10805   1.685   0.963   4.618
 2694SOL    HW210806   1.728   0.881   4.592
 2694SOL    HW310807   1.591   0.946   4.607
 2694SOL    MW410808   1.678   0.950   4.613
 2695SOL     OW10809   0.479   1.142   4.660
 2695SOL    HW210810   0.455   1.053   4.637
 2695SOL    HW310811   0.501   1.138   4.753
 2695SOL    MW410812   0.479   1.130   4.669
 2696SOL     OW10813   0.938   1.970   4.728
 2696SOL    HW210814   0.976   2.053   4.758
 2696SOL    HW310815   1.007   1.930   4.675
 2696SOL    MW410816   0.952   1.976   4.725
 2697SOL     OW10817   0.914   1.199   4.514
 2697SOL    HW210818   0.835   1.253   4.524
 2697SOL    HW310819   0.884   1.110   4.532
 2697SOL    MW410820   0.899   1.194   4.518
 2698SOL     OW10821   1.835   1.203   4.618
 2698SOL    HW210822   1.792   1.119   4.603
 2698SOL    HW310823   1.924   1.191   4.583
 2698SOL    MW410824   1.841   1.190   4.612
 2699SOL     OW10825   1.112   1.389   4.485
 2699SOL    HW210826   1.052   1.322   4.518
 2699SOL    HW310827   1.066   1.472   4.499
 2699SOL    MW410828   1.098   1.391   4.492
 2700SOL     OW10829   1.118   2.431   4.683
 2700SOL    HW210830   1.099   2.517   4.723
 2700SOL    HW310831   1.195   2.447   4.629
 2700SOL    MW410832   1.126   2.445   4.681
 2701SOL     OW10833   1.582   2.777   4.808
 2701SOL    HW210834   1.607   2.703   4.754
 2701SOL    HW310835   1.626   2.852   4.768
 2701SOL    MW410836   1.591   2.777   4.796
 2702SOL     OW10837   1.439   3.011   4.590
 2702SOL    HW210838   1.411   2.920   4.598
 2702SOL    HW310839   1.512   3.019   4.651
 2702SOL    MW410840   1.445   3.000   4.599
 2703SOL     OW10841   1.643   3.389   4.560
 2703SOL    HW210842   1.562   3.347   4.587
 2703SOL    HW310843   1.678   3.333   4.490
 2703SOL    MW410844   1.637   3.376   4.554
 2704SOL     OW10845   0.809   2.859   4.521
 2704SOL    HW210846   0.905   2.859   4.514
 2704SOL    HW310847   0.788   2.774   4.560
 2704SOL    MW410848   0.819   2.848   4.526
 2705SOL     OW10849   0.411   4.048   4.483
 2705SOL    HW210850   0.372   4.135   4.490
 2705SOL    HW310851   0.447   4.045   4.395
 2705SOL    MW410852   0.411   4.059   4.472
 2706SOL     OW10853   1.096   2.841   4.482
 2706SOL    HW210854   1.091   2.858   4.388
 2706SOL    HW310855   1.189   2.849   4.503
 2706SOL    MW410856   1.107   2.844   4.472
 2707SOL     OW10857   0.575   3.231   4.680
 2707SOL    HW210858   0.642   3.170   4.709
 2707SOL    HW310859   0.621   3.313   4.666
 2707SOL    MW410860   0.590   3.234   4.682
 2708SOL     OW10861   1.588   3.674   4.506
 2708SOL    HW210862   1.669   3.715   4.535
 2708SOL    HW310863   1.599   3.581   4.529
 2708SOL    MW410864   1.600   3.667   4.513
 2709SOL     OW10865   0.673   3.890   4.539
 2709SOL    HW210866   0.605   3.955   4.556
 2709SOL    HW310867   0.753   3.941   4.528
 2709SOL    MW410868   0.674   3.905   4.540
 2710SOL     OW10869   0.253   3.831   4.597
 2710SOL    HW210870   0.268   3.743   4.563
 2710SOL    HW310871   0.322   3.884   4.557
 2710SOL    MW410872   0.264   3.826   4.588
 2711SOL     OW10873   0.911   4.318   4.526
 2711SOL    HW210874   0.897   4.231   4.563
 2711SOL    HW310875   0.828   4.363   4.536
 2711SOL    MW410876   0.898   4.313   4.532
 2712SOL     OW10877   0.264   4.316   4.462
 2712SOL    HW210878   0.275   4.406   4.493
 2712SOL    HW310879   0.190   4.282   4.513
 2712SOL    MW410880   0.255   4.323   4.473
 2713SOL     OW10881   2.081   3.590   4.771
 2713SOL    HW210882   2.120   3.599   4.858
 2713SOL    HW310883   2.154   3.562   4.715
 2713SOL    MW410884   2.096   3.587   4.775
 2714SOL     OW10885   1.642   4.452   4.547
 2714SOL    HW210886   1.716   4.397   4.572
 2714SOL    HW310887   1.635   4.441   4.452
 2714SOL    MW410888   1.651   4.444   4.538
 2715SOL     OW10889   1.362   4.329   4.579
 2715SOL    HW210890   1.454   4.349   4.562
 2715SOL    HW310891   1.362   4.237   4.607
 2715SOL    MW410892   1.374   4.319   4.581
 2716SOL     OW10893   0.902   0.557   4.745
 2716SOL    HW210894   0.830   0.601   4.701
 2716SOL    HW310895   0.912   0.604   4.828
 2716SOL    MW410896   0.894   0.569   4.750
 2717SOL     OW10897   1.634   0.044   4.651
 2717SOL    HW210898   1.628  -0.043   4.609
 2717SOL    HW310899   1.657   0.025   4.742
 2717SOL    MW410900   1.636   0.030   4.657
 2718SOL     OW10901   1.175   0.547   4.658
 2718SOL    HW210902   1.085   0.542   4.688
 2718SOL    HW310903   1.184   0.474   4.597
 2718SOL    MW410904   1.165   0.537   4.654
 2719SOL     OW10905   1.794   1.753   4.489
 2719SOL    HW210906   1.727   1.700   4.532
 2719SOL    HW310907   1.796   1.721   4.399
 2719SOL    MW410908   1.786   1.741   4.483
 2720SOL     OW10909   0.662   0.673   4.630
 2720SOL    HW210910   0.596   0.742   4.631
 2720SOL    HW310911   0.615   0.595   4.602
 2720SOL    MW410912   0.647   0.672   4.626
 2721SOL     OW10913   1.655   0.468   4.469
 2721SOL    HW210914   1.591   0.501   4.533
 2721SOL    HW310915   1.702   0.399   4.516
 2721SOL    MW410916   1.653   0.463   4.484
 2722SOL     OW10917   1.595   1.295   4.520
 2722SOL    HW210918   1.504   1.270   4.537
 2722SOL    HW310919   1.646   1.217   4.543
 2722SOL    MW410920   1.590   1.281   4.525
 2723SOL     OW10921   1.377   1.697   4.514
 2723SOL    HW210922   1.448   1.648   4.555
 2723SOL    HW310923   1.373   1.663   4.424
 2723SOL    MW410924   1.386   1.686   4.508
 2724SOL     OW10925   1.349   2.757   4.644
 2724SOL    HW210926   1.358   2.671   4.602
 2724SOL    HW310927   1.425   2.763   4.702
 2724SOL    MW410928   1.360   2.746   4.646
 2725SOL     OW10929   2.324   2.574   4.346
 2725SOL    HW210930   2.332   2.565   4.251
 2725SOL    HW310931   2.249   2.633   4.358
 2725SOL    MW410932   2.315   2.581   4.335
 2726SOL     OW10933   0.870   2.368   4.552
 2726SOL    HW210934   0.955   2.388   4.591
 2726SOL    HW310935   0.878   2.400   4.462
 2726SOL    MW410936   0.883   2.375   4.545
 2727SOL     OW10937   1.349   3.805   4.620
 2727SOL    HW210938   1.336   3.746   4.695
 2727SOL    HW310939   1.419   3.764   4.569
 2727SOL    MW410940   1.357   3.792   4.623
 2728SOL     OW10941   1.350   2.490   4.256
 2728SOL    HW210942   1.368   2.574   4.213
 2728SOL    HW310943   1.414   2.429   4.218
 2728SOL    MW410944   1.361   2.493   4.245
 2729SOL     OW10945   1.335   2.492   4.533
 2729SOL    HW210946   1.322   2.480   4.439
 2729SOL    HW310947   1.422   2.456   4.550
 2729SOL    MW410948   1.345   2.486   4.523
 2730SOL     OW10949   1.352   3.271   4.518
 2730SOL    HW210950   1.367   3.187   4.561
 2730SOL    HW310951   1.349   3.249   4.424
 2730SOL    MW410952   1.353   3.257   4.511
 2731SOL     OW10953   1.140   3.356   4.707
 2731SOL    HW210954   1.215   3.357   4.647
 2731SOL    HW310955   1.068   3.320   4.654
 2731SOL    MW410956   1.141   3.351   4.692
 2732SOL     OW10957   0.949   3.584   4.733
 2732SOL    HW210958   1.008   3.514   4.708
 2732SOL    HW310959   0.981   3.661   4.685
 2732SOL    MW410960   0.961   3.585   4.723
 2733SOL     OW10961   2.270   3.526   4.582
 2733SOL    HW210962   2.218   3.471   4.523
 2733SOL    HW310963   2.317   3.463   4.637
 2733SOL    MW410964   2.269   3.510   4.582
 2734SOL     OW10965   1.923   3.358   4.628
 2734SOL    HW210966   1.957   3.428   4.683
 2734SOL    HW310967   1.835   3.388   4.603
 2734SOL    MW410968   1.916   3.371   4.632
 2735SOL     OW10969   2.202   3.331   4.373
 2735SOL    HW210970   2.113   3.299   4.388
 2735SOL    HW310971   2.258   3.265   4.413
 2735SOL    MW410972   2.197   3.318   4.380
 2736SOL     OW10973   0.924   4.030   4.559
 2736SOL    HW210974   0.928   4.036   4.464
 2736SOL    HW310975   0.974   3.951   4.581
 2736SOL    MW410976   0.931   4.020   4.550
 2737SOL     OW10977   1.758   3.997   4.533
 2737SOL    HW210978   1.780   4.001   4.440
 2737SOL    HW310979   1.777   3.907   4.558
 2737SOL    MW410980   1.763   3.986   4.524
 2738SOL     OW10981   2.075   0.179   4.531
 2738SOL    HW210982   2.160   0.222   4.545
 2738SOL    HW310983   2.076   0.153   4.439
 2738SOL    MW410984   2.087   0.182   4.521
 2739SOL     OW10985   1.185   0.296   4.503
 2739SOL    HW210986   1.110   0.238   4.511
 2739SOL    HW310987   1.261   0.238   4.509
 2739SOL    MW410988   1.185   0.281   4.505
 2740SOL     OW10989   1.788   0.244   4.562
 2740SOL    HW210990   1.879   0.217   4.573
 2740SOL    HW310991   1.737   0.168   4.591
 2740SOL    MW410992   1.793   0.230   4.567
 2741SOL     OW10993   2.509   4.558   4.671
 2741SOL    HW210994   2.497   4.473   4.629
 2741SOL    HW310995   2.425   4.602   4.660
 2741SOL    MW410996   2.496   4.552   4.664
 2742SOL     OW10997   1.803   0.722   4.523
 2742SOL    HW210998   1.761   0.638   4.502
 2742SOL    HW310999   1.802   0.770   4.440
 2742SOL    MW411000   1.797   0.717   4.509
 2743SOL     OW11001   1.461   0.588   4.617
 2743SOL    HW211002   1.460   0.683   4.625
 2743SOL    HW311003   1.373   0.561   4.643
 2743SOL    MW411004   1.449   0.597   4.621
 2744SOL     OW11005   1.995   1.660   4.678
 2744SOL    HW211006   1.965   1.580   4.723
 2744SOL    HW311007   1.922   1.684   4.621
 2744SOL    MW411008   1.981   1.652   4.676
 2745SOL     OW11009   0.791   1.727   4.745
 2745SOL    HW211010   0.842   1.808   4.755
 2745SOL    HW311011   0.804   1.681   4.828
 2745SOL    MW411012   0.800   1.732   4.758
 2746SOL     OW11013   1.617   1.574   4.631
 2746SOL    HW211014   1.625   1.482   4.606
 2746SOL    HW311015   1.638   1.575   4.725
 2746SOL    MW411016   1.621   1.562   4.640
 2747SOL     OW11017   1.164   2.168   4.739
 2747SOL    HW211018   1.255   2.150   4.764
 2747SOL    HW311019   1.160   2.263   4.729
 2747SOL    MW411020   1.176   2.178   4.741
 2748SOL     OW11021   1.466   1.982   4.473
 2748SOL    HW211022   1.507   1.988   4.388
 2748SOL    HW311023   1.449   1.889   4.485
 2748SOL    MW411024   1.469   1.971   4.464
 2749SOL     OW11025   2.121   2.380   4.137
 2749SOL    HW211026   2.102   2.319   4.209
 2749SOL    HW311027   2.087   2.336   4.059
 2749SOL    MW411028   2.114   2.366   4.137
 2750SOL     OW11029   1.457   2.174   4.679
 2750SOL    HW211030   1.466   2.105   4.613
 2750SOL    HW311031   1.513   2.245   4.647
 2750SOL    MW411032   1.466   2.174   4.666
 2751SOL     OW11033   2.354   3.103   4.450
 2751SOL    HW211034   2.437   3.086   4.493
 2751SOL    HW311035   2.300   3.027   4.472
 2751SOL    MW411036   2.358   3.091   4.459
 2752SOL     OW11037   1.701   2.988   4.678
 2752SOL    HW211038   1.735   2.925   4.614
 2752SOL    HW311039   1.778   3.037   4.707
 2752SOL    MW411040   1.716   2.986   4.673
 2753SOL     OW11041   1.843   4.281   4.605
 2753SOL    HW211042   1.837   4.187   4.623
 2753SOL    HW311043   1.937   4.296   4.591
 2753SOL    MW411044   1.855   4.270   4.605
 2754SOL     OW11045   2.630   3.030   4.615
 2754SOL    HW211046   2.710   2.990   4.580
 2754SOL    HW311047   2.586   2.958   4.661
 2754SOL    MW411048   2.635   3.015   4.617
 2755SOL     OW11049   2.394   3.332   4.722
 2755SOL    HW211050   2.481   3.313   4.756
 2755SOL    HW311051   2.353   3.246   4.712
 2755SOL    MW411052   2.400   3.318   4.725
 2756SOL     OW11053   2.723   4.022   4.534
 2756SOL    HW211054   2.635   3.990   4.556
 2756SOL    HW311055   2.738   3.991   4.444
 2756SOL    MW411056   2.713   4.014   4.525
 2757SOL     OW11057   2.469   3.905   4.628
 2757SOL    HW211058   2.478   3.821   4.584
 2757SOL    HW311059   2.475   3.885   4.721
 2757SOL    MW411060   2.471   3.891   4.635
 2758SOL     OW11061   2.516   3.645   4.525
 2758SOL    HW211062   2.427   3.622   4.552
 2758SOL    HW311063   2.511   3.652   4.430
 2758SOL    MW411064   2.504   3.643   4.516
 2759SOL     OW11065   1.855   3.739   4.581
 2759SOL    HW211066   1.904   3.727   4.500
 2759SOL    HW311067   1.916   3.715   4.650
 2759SOL    MW411068   1.869   3.734   4.579
 2760SOL     OW11069   2.143   4.366   4.524
 2760SOL    HW211070   2.213   4.301   4.533
 2760SOL    HW311071   2.187   4.450   4.538
 2760SOL    MW411072   2.158   4.369   4.527
 2761SOL     OW11073   1.103   3.751   4.530
 2761SOL    HW211074   1.116   3.716   4.442
 2761SOL    HW311075   1.189   3.781   4.557
 2761SOL    MW411076   1.116   3.751   4.522
 2762SOL     OW11077   2.257   4.625   4.545
 2762SOL    HW211078   2.196   4.694   4.571
 2762SOL    HW311079   2.274   4.643   4.452
 2762SOL    MW411080   2.251   4.636   4.536
 2763SOL     OW11081   2.331   0.274   4.555
 2763SOL    HW211082   2.408   0.218   4.546
 2763SOL    HW311083   2.359   0.344   4.614
 2763SOL    MW411084   2.345   0.276   4.562
 2764SOL     OW11085   1.883   1.425   4.795
 2764SOL    HW211086   1.849   1.372   4.723
 2764SOL    HW311087   1.920   1.362   4.856
 2764SOL    MW411088   1.883   1.410   4.793
 2765SOL     OW11089   2.574   0.136   4.530
 2765SOL    HW211090   2.586   0.056   4.581
 2765SOL    HW311091   2.594   0.111   4.440
 2765SOL    MW411092   2.578   0.122   4.525
 2766SOL     OW11093   2.386   0.625   4.489
 2766SOL    HW211094   2.293   0.650   4.488
 2766SOL    HW311095   2.433   0.708   4.479
 2766SOL    MW411096   2.380   0.640   4.487
 2767SOL     OW11097   2.888   0.716   4.587
 2767SOL    HW211098   2.965   0.772   4.592
 2767SOL    HW311099   2.923   0.629   4.568
 2767SOL    MW411100   2.902   0.712   4.585
 2768SOL     OW11101   2.275   1.335   4.513
 2768SOL    HW211102   2.370   1.318   4.509
 2768SOL    HW311103   2.269   1.428   4.533
 2768SOL    MW411104   2.287   1.345   4.515
 2769SOL     OW11105   2.551   1.257   4.513
 2769SOL    HW211106   2.545   1.170   4.552
 2769SOL    HW311107   2.636   1.290   4.543
 2769SOL    MW411108   2.561   1.250   4.522
 2770SOL     OW11109   2.781   1.387   4.643
 2770SOL    HW211110   2.766   1.468   4.594
 2770SOL    HW311111   2.760   1.409   4.733
 2770SOL    MW411112   2.776   1.400   4.648
 2771SOL     OW11113   2.258   1.632   4.548
 2771SOL    HW211114   2.237   1.644   4.455
 2771SOL    HW311115   2.175   1.641   4.593
 2771SOL    MW411116   2.244   1.635   4.542
 2772SOL     OW11117   2.306   2.124   4.658
 2772SOL    HW211118   2.342   2.211   4.641
 2772SOL    HW311119   2.267   2.131   4.745
 2772SOL    MW411120   2.306   2.137   4.668
 2773SOL     OW11121   2.440   1.899   4.546
 2773SOL    HW211122   2.384   1.824   4.566
 2773SOL    HW311123   2.400   1.972   4.594
 2773SOL    MW411124   2.427   1.899   4.555
 2774SOL     OW11125   2.561   2.242   4.411
 2774SOL    HW211126   2.510   2.306   4.460
 2774SOL    HW311127   2.496   2.191   4.363
 2774SOL    MW411128   2.546   2.243   4.411
 2775SOL     OW11129   1.729   2.633   4.603
 2775SOL    HW211130   1.758   2.693   4.535
 2775SOL    HW311131   1.809   2.610   4.651
 2775SOL    MW411132   1.743   2.638   4.601
 2776SOL     OW11133   2.241   3.078   4.749
 2776SOL    HW211134   2.153   3.112   4.739
 2776SOL    HW311135   2.246   3.004   4.688
 2776SOL    MW411136   2.230   3.072   4.740
 2777SOL     OW11137   2.706   3.459   4.560
 2777SOL    HW211138   2.674   3.418   4.640
 2777SOL    HW311139   2.638   3.524   4.538
 2777SOL    MW411140   2.692   3.462   4.567
 2778SOL     OW11141   2.670   3.254   4.775
 2778SOL    HW211142   2.764   3.248   4.788
 2778SOL    HW311143   2.650   3.182   4.714
 2778SOL    MW411144   2.679   3.243   4.769
 2779SOL     OW11145   1.468   4.055   4.533
 2779SOL    HW211146   1.444   3.968   4.565
 2779SOL    HW311147   1.564   4.056   4.534
 2779SOL    MW411148   1.478   4.044   4.537
 2780SOL     OW11149   2.765   4.308   4.496
 2780SOL    HW211150   2.675   4.332   4.474
 2780SOL    HW311151   2.759   4.217   4.527
 2780SOL    MW411152   2.753   4.299   4.497
 2781SOL     OW11153   1.952   3.097   4.725
 2781SOL    HW211154   1.986   3.049   4.649
 2781SOL    HW311155   1.937   3.186   4.693
 2781SOL    MW411156   1.955   3.102   4.710
 2782SOL     OW11157   3.434   3.924   4.580
 2782SOL    HW211158   3.354   3.975   4.595
 2782SOL    HW311159   3.406   3.833   4.590
 2782SOL    MW411160   3.420   3.919   4.583
 2783SOL     OW11161   3.189   4.063   4.548
 2783SOL    HW211162   3.121   4.019   4.599
 2783SOL    HW311163   3.185   4.154   4.575
 2783SOL    MW411164   3.180   4.069   4.558
 2784SOL     OW11165   2.324   4.131   4.513
 2784SOL    HW211166   2.378   4.067   4.559
 2784SOL    HW311167   2.317   4.096   4.424
 2784SOL    MW411168   2.330   4.118   4.508
 2785SOL     OW11169   2.491   4.349   4.476
 2785SOL    HW211170   2.441   4.267   4.481
 2785SOL    HW311171   2.481   4.377   4.385
 2785SOL    MW411172   2.483   4.342   4.465
 2786SOL     OW11173   2.973   0.445   4.506
 2786SOL    HW211174   2.941   0.446   4.416
 2786SOL    HW311175   2.896   0.427   4.560
 2786SOL    MW411176   2.959   0.443   4.502
 2787SOL     OW11177   2.718   0.353   4.600
 2787SOL    HW211178   2.676   0.274   4.565
 2787SOL    HW311179   2.761   0.323   4.680
 2787SOL    MW411180   2.718   0.338   4.606
 2788SOL     OW11181   3.327   0.302   4.770
 2788SOL    HW211182   3.246   0.269   4.732
 2788SOL    HW311183   3.350   0.378   4.716
 2788SOL    MW411184   3.319   0.308   4.758
 2789SOL     OW11185   2.632   0.770   4.506
 2789SOL    HW211186   2.708   0.738   4.553
 2789SOL    HW311187   2.668   0.810   4.427
 2789SOL    MW411188   2.647   0.771   4.502
 2790SOL     OW11189   3.683   0.709   4.791
 2790SOL    HW211190   3.694   0.616   4.768
 2790SOL    HW311191   3.749   0.754   4.737
 2790SOL    MW411192   3.693   0.702   4.780
 2791SOL     OW11193   2.079   0.701   4.479
 2791SOL    HW211194   2.122   0.783   4.500
 2791SOL    HW311195   1.990   0.711   4.512
 2791SOL    MW411196   2.073   0.713   4.486
 2792SOL     OW11197   2.505   0.998   4.613
 2792SOL    HW211198   2.572   0.935   4.587
 2792SOL    HW311199   2.459   0.956   4.686
 2792SOL    MW411200   2.507   0.984   4.619
 2793SOL     OW11201   3.166   1.419   4.599
 2793SOL    HW211202   3.117   1.339   4.578
 2793SOL    HW311203   3.222   1.433   4.523
 2793SOL    MW411204   3.167   1.410   4.586
 2794SOL     OW11205   3.062   1.669   4.530
 2794SOL    HW211206   2.970   1.653   4.509
 2794SOL    HW311207   3.094   1.584   4.561
 2794SOL    MW411208   3.054   1.655   4.531
 2795SOL     OW11209   2.805   1.615   4.485
 2795SOL    HW211210   2.755   1.688   4.522
 2795SOL    HW311211   2.761   1.594   4.403
 2795SOL    MW411212   2.793   1.622   4.479
 2796SOL     OW11213   2.698   1.851   4.632
 2796SOL    HW211214   2.750   1.929   4.612
 2796SOL    HW311215   2.612   1.869   4.594
 2796SOL    MW411216   2.694   1.864   4.624
 2797SOL     OW11217   2.795   2.104   4.508
 2797SOL    HW211218   2.715   2.152   4.486
 2797SOL    HW311219   2.841   2.094   4.425
 2797SOL    MW411220   2.790   2.109   4.494
 2798SOL     OW11221   2.993   2.256   4.628
 2798SOL    HW211222   3.072   2.209   4.601
 2798SOL    HW311223   2.921   2.210   4.583
 2798SOL    MW411224   2.994   2.244   4.618
 2799SOL     OW11225   2.453   2.849   4.750
 2799SOL    HW211226   2.422   2.921   4.805
 2799SOL    HW311227   2.385   2.840   4.683
 2799SOL    MW411228   2.440   2.857   4.748
 2800SOL     OW11229   3.716   3.285   4.503
 2800SOL    HW211230   3.692   3.285   4.411
 2800SOL    HW311231   3.809   3.262   4.503
 2800SOL    MW411232   3.725   3.282   4.491
 2801SOL     OW11233   2.583   2.630   4.610
 2801SOL    HW211234   2.555   2.683   4.684
 2801SOL    HW311235   2.546   2.673   4.533
 2801SOL    MW411236   2.574   2.642   4.609
 2802SOL     OW11237   2.943   3.626   4.515
 2802SOL    HW211238   3.012   3.560   4.518
 2802SOL    HW311239   2.865   3.582   4.548
 2802SOL    MW411240   2.942   3.612   4.520
 2803SOL     OW11241   2.891   2.974   4.522
 2803SOL    HW211242   2.972   2.976   4.572
 2803SOL    HW311243   2.892   2.888   4.478
 2803SOL    MW411244   2.902   2.963   4.523
 2804SOL     OW11245   2.779   4.645   4.741
 2804SOL    HW211246   2.849   4.599   4.695
 2804SOL    HW311247   2.703   4.588   4.731
 2804SOL    MW411248   2.778   4.631   4.734
 2805SOL     OW11249   3.881   3.598   4.735
 2805SOL    HW211250   3.966   3.556   4.718
 2805SOL    HW311251   3.899   3.663   4.802
 2805SOL    MW411252   3.895   3.601   4.741
 2806SOL     OW11253   3.866   3.814   4.552
 2806SOL    HW211254   3.861   3.739   4.611
 2806SOL    HW311255   3.831   3.782   4.469
 2806SOL    MW411256   3.861   3.800   4.549
 2807SOL     OW11257   2.972   3.883   4.608
 2807SOL    HW211258   2.882   3.915   4.599
 2807SOL    HW311259   2.973   3.801   4.560
 2807SOL    MW411260   2.960   3.876   4.601
 2808SOL     OW11261   2.965   4.493   4.596
 2808SOL    HW211262   2.898   4.430   4.571
 2808SOL    HW311263   3.039   4.440   4.624
 2808SOL    MW411264   2.965   4.478   4.596
 2809SOL     OW11265   3.072   0.225   4.649
 2809SOL    HW211266   3.058   0.306   4.599
 2809SOL    HW311267   2.998   0.222   4.710
 2809SOL    MW411268   3.060   0.236   4.651
 2810SOL     OW11269   3.394   0.556   4.580
 2810SOL    HW211270   3.334   0.566   4.506
 2810SOL    HW311271   3.416   0.646   4.605
 2810SOL    MW411272   3.389   0.569   4.574
 2811SOL     OW11273   2.465   0.471   4.725
 2811SOL    HW211274   2.534   0.437   4.667
 2811SOL    HW311275   2.430   0.547   4.679
 2811SOL    MW411276   2.470   0.476   4.712
 2812SOL     OW11277   2.260   0.934   4.486
 2812SOL    HW211278   2.346   0.971   4.505
 2812SOL    HW311279   2.200   1.009   4.492
 2812SOL    MW411280   2.263   0.949   4.490
 2813SOL     OW11281   2.833   0.236   4.831
 2813SOL    HW211282   2.821   0.143   4.809
 2813SOL    HW311283   2.799   0.244   4.920
 2813SOL    MW411284   2.827   0.225   4.840
 2814SOL     OW11285   3.483   0.831   4.639
 2814SOL    HW211286   3.541   0.889   4.589
 2814SOL    HW311287   3.538   0.794   4.708
 2814SOL    MW411288   3.498   0.834   4.642
 2815SOL     OW11289   3.348   1.282   4.744
 2815SOL    HW211290   3.283   1.334   4.697
 2815SOL    HW311291   3.313   1.193   4.742
 2815SOL    MW411292   3.335   1.277   4.737
 2816SOL     OW11293   2.967   1.221   4.528
 2816SOL    HW211294   2.907   1.277   4.576
 2816SOL    HW311295   2.936   1.224   4.437
 2816SOL    MW411296   2.955   1.229   4.522
 2817SOL     OW11297   4.087   0.983   4.497
 2817SOL    HW211298   4.086   0.945   4.409
 2817SOL    HW311299   4.146   0.926   4.547
 2817SOL    MW411300   4.095   0.970   4.492
 2818SOL     OW11301   3.535   1.459   4.603
 2818SOL    HW211302   3.521   1.541   4.651
 2818SOL    HW311303   3.492   1.393   4.655
 2818SOL    MW411304   3.528   1.461   4.616
 2819SOL     OW11305   3.251   1.865   4.543
 2819SOL    HW211306   3.291   1.842   4.459
 2819SOL    HW311307   3.168   1.816   4.544
 2819SOL    MW411308   3.245   1.855   4.532
 2820SOL     OW11309   3.258   2.134   4.527
 2820SOL    HW211310   3.236   2.043   4.549
 2820SOL    HW311311   3.255   2.138   4.432
 2820SOL    MW411312   3.255   2.122   4.518
 2821SOL     OW11313   3.446   1.719   4.696
 2821SOL    HW211314   3.404   1.702   4.781
 2821SOL    HW311315   3.378   1.762   4.644
 2821SOL    MW411316   3.431   1.723   4.700
 2822SOL     OW11317   2.838   2.712   4.438
 2822SOL    HW211318   2.777   2.657   4.487
 2822SOL    HW311319   2.924   2.690   4.472
 2822SOL    MW411320   2.841   2.702   4.449
 2823SOL     OW11321   3.314   2.634   4.638
 2823SOL    HW211322   3.232   2.613   4.592
 2823SOL    HW311323   3.326   2.727   4.624
 2823SOL    MW411324   3.304   2.643   4.630
 2824SOL     OW11325   3.083   2.531   4.508
 2824SOL    HW211326   3.095   2.522   4.414
 2824SOL    HW311327   3.066   2.442   4.539
 2824SOL    MW411328   3.083   2.518   4.500
 2825SOL     OW11329   3.831   2.891   4.561
 2825SOL    HW211330   3.840   2.797   4.576
 2825SOL    HW311331   3.919   2.926   4.574
 2825SOL    MW411332   3.844   2.883   4.565
 2826SOL     OW11333   3.109   3.064   4.675
 2826SOL    HW211334   3.185   3.034   4.625
 2826SOL    HW311335   3.139   3.064   4.766
 2826SOL    MW411336   3.123   3.060   4.680
 2827SOL     OW11337   3.597   3.068   4.640
 2827SOL    HW211338   3.674   3.011   4.639
 2827SOL    HW311339   3.625   3.146   4.593
 2827SOL    MW411340   3.611   3.070   4.634
 2828SOL     OW11341   4.280   2.524   4.594
 2828SOL    HW211342   4.373   2.500   4.593
 2828SOL    HW311343   4.280   2.618   4.576
 2828SOL    MW411344   4.293   2.533   4.591
 2829SOL     OW11345   3.640   3.528   4.612
 2829SOL    HW211346   3.711   3.538   4.675
 2829SOL    HW311347   3.658   3.444   4.569
 2829SOL    MW411348   3.651   3.518   4.615
 2830SOL     OW11349   3.668   4.254   4.521
 2830SOL    HW211350   3.753   4.298   4.517
 2830SOL    HW311351   3.688   4.168   4.559
 2830SOL    MW411352   3.682   4.248   4.525
 2831SOL     OW11353   3.197   4.325   4.623
 2831SOL    HW211354   3.248   4.338   4.703
 2831SOL    HW311355   3.262   4.324   4.553
 2831SOL    MW411356   3.212   4.327   4.624
 2832SOL     OW11357   3.159   0.008   4.479
 2832SOL    HW211358   3.090  -0.047   4.516
 2832SOL    HW311359   3.150   0.092   4.524
 2832SOL    MW411360   3.149   0.012   4.490
 2833SOL     OW11361   3.421   4.357   4.455
 2833SOL    HW211362   3.504   4.333   4.496
 2833SOL    HW311363   3.423   4.453   4.453
 2833SOL    MW411364   3.432   4.367   4.460
 2834SOL     OW11365   3.692   4.002   4.642
 2834SOL    HW211366   3.749   3.933   4.610
 2834SOL    HW311367   3.603   3.969   4.629
 2834SOL    MW411368   3.688   3.989   4.636
 2835SOL     OW11369   3.532   0.174   4.635
 2835SOL    HW211370   3.463   0.199   4.697
 2835SOL    HW311371   3.494   0.101   4.586
 2835SOL    MW411372   3.518   0.167   4.636
 2836SOL     OW11373   3.083   0.948   4.558
 2836SOL    HW211374   3.031   1.028   4.559
 2836SOL    HW311375   3.145   0.959   4.629
 2836SOL    MW411376   3.084   0.960   4.567
 2837SOL     OW11377   3.267   1.015   4.762
 2837SOL    HW211378   3.342   0.974   4.720
 2837SOL    HW311379   3.286   1.011   4.856
 2837SOL    MW411380   3.279   1.009   4.769
 2838SOL     OW11381   4.095   1.470   4.609
 2838SOL    HW211382   4.144   1.388   4.603
 2838SOL    HW311383   4.003   1.442   4.607
 2838SOL    MW411384   4.089   1.456   4.608
 2839SOL     OW11385   3.837   1.179   4.462
 2839SOL    HW211386   3.847   1.263   4.507
 2839SOL    HW311387   3.915   1.130   4.486
 2839SOL    MW411388   3.849   1.184   4.471
 2840SOL     OW11389   0.054   0.888   4.543
 2840SOL    HW211390   0.050   0.872   4.449
 2840SOL    HW311391   0.122   0.829   4.576
 2840SOL    MW411392   0.063   0.878   4.535
 2841SOL     OW11393   4.316   0.537   4.552
 2841SOL    HW211394   4.303   0.520   4.458
 2841SOL    HW311395   4.245   0.490   4.595
 2841SOL    MW411396   4.305   0.528   4.545
 2842SOL     OW11397   3.443   1.761   4.350
 2842SOL    HW211398   3.520   1.764   4.407
 2842SOL    HW311399   3.460   1.687   4.292
 2842SOL    MW411400   3.456   1.752   4.350
 2843SOL     OW11401   3.676   1.817   4.539
 2843SOL    HW211402   3.620   1.795   4.613
 2843SOL    HW311403   3.685   1.913   4.543
 2843SOL    MW411404   3.670   1.827   4.549
 2844SOL     OW11405   3.488   2.231   4.626
 2844SOL    HW211406   3.471   2.217   4.719
 2844SOL    HW311407   3.411   2.197   4.582
 2844SOL    MW411408   3.476   2.225   4.632
 2845SOL     OW11409   3.987   2.191   4.616
 2845SOL    HW211410   4.040   2.116   4.644
 2845SOL    HW311411   4.004   2.259   4.680
 2845SOL    MW411412   3.996   2.190   4.628
 2846SOL     OW11413   4.184   2.010   4.683
 2846SOL    HW211414   4.272   1.997   4.718
 2846SOL    HW311415   4.151   1.921   4.668
 2846SOL    MW411416   4.191   1.997   4.685
 2847SOL     OW11417   3.717   2.107   4.540
 2847SOL    HW211418   3.794   2.142   4.583
 2847SOL    HW311419   3.648   2.171   4.559
 2847SOL    MW411420   3.718   2.120   4.548
 2848SOL     OW11421   3.837   2.605   4.582
 2848SOL    HW211422   3.752   2.562   4.589
 2848SOL    HW311423   3.873   2.573   4.499
 2848SOL    MW411424   3.831   2.595   4.572
 2849SOL     OW11425   4.037   2.450   4.715
 2849SOL    HW211426   3.981   2.517   4.674
 2849SOL    HW311427   4.126   2.480   4.698
 2849SOL    MW411428   4.041   2.463   4.707
 2850SOL     OW11429   4.098   2.960   4.534
 2850SOL    HW211430   4.175   2.913   4.567
 2850SOL    HW311431   4.103   2.951   4.439
 2850SOL    MW411432   4.109   2.953   4.526
 2851SOL     OW11433   3.165   3.420   4.495
 2851SOL    HW211434   3.125   3.361   4.559
 2851SOL    HW311435   3.191   3.362   4.423
 2851SOL    MW411436   3.163   3.404   4.494
 2852SOL     OW11437   3.992   3.234   4.548
 2852SOL    HW211438   4.033   3.147   4.553
 2852SOL    HW311439   4.013   3.265   4.460
 2852SOL    MW411440   4.000   3.226   4.537
 2853SOL     OW11441   3.376   3.612   4.537
 2853SOL    HW211442   3.313   3.541   4.525
 2853SOL    HW311443   3.458   3.568   4.561
 2853SOL    MW411444   3.378   3.597   4.539
 2854SOL     OW11445   4.324   3.539   4.555
 2854SOL    HW211446   4.299   3.555   4.465
 2854SOL    HW311447   4.250   3.493   4.593
 2854SOL    MW411448   4.311   3.535   4.548
 2855SOL     OW11449   0.049   2.896   4.625
 2855SOL    HW211450   0.117   2.829   4.613
 2855SOL    HW311451   0.081   2.971   4.576
 2855SOL    MW411452   0.062   2.897   4.617
 2856SOL     OW11453   4.114   3.937   4.510
 2856SOL    HW211454   4.113   4.024   4.550
 2856SOL    HW311455   4.028   3.900   4.529
 2856SOL    MW411456   4.102   3.944   4.518
 2857SOL     OW11457   3.897   4.400   4.523
 2857SOL    HW211458   3.885   4.406   4.428
 2857SOL    HW311459   3.883   4.490   4.554
 2857SOL    MW411460   3.893   4.413   4.514
 2858SOL     OW11461   3.425   4.629   4.465
 2858SOL    HW211462   3.465   4.677   4.392
 2858SOL    HW311463   3.331   4.648   4.459
 2858SOL    MW411464   3.418   4.638   4.454
 2859SOL     OW11465   3.565   1.036   4.453
 2859SOL    HW211466   3.642   1.092   4.465
 2859SOL    HW311467   3.589   0.978   4.381
 2859SOL    MW411468   3.578   1.036   4.445
 2860SOL     OW11469   3.924   0.795   4.637
 2860SOL    HW211470   3.990   0.790   4.706
 2860SOL    HW311471   3.945   0.875   4.589
 2860SOL    MW411472   3.936   0.805   4.639
 2861SOL     OW11473   0.050   0.359   4.601
 2861SOL    HW211474   0.134   0.393   4.569
 2861SOL    HW311475  -0.011   0.432   4.591
 2861SOL    MW411476   0.053   0.373   4.595
 2862SOL     OW11477   0.269   0.493   4.466
 2862SOL    HW211478   0.353   0.449   4.475
 2862SOL    HW311479   0.261   0.512   4.373
 2862SOL    MW411480   0.279   0.490   4.455
 2863SOL     OW11481   4.150   0.361   4.667
 2863SOL    HW211482   4.072   0.416   4.660
 2863SOL    HW311483   4.128   0.282   4.617
 2863SOL    MW411484   4.137   0.358   4.659
 2864SOL     OW11485   3.811   1.441   4.545
 2864SOL    HW211486   3.718   1.437   4.566
 2864SOL    HW311487   3.816   1.493   4.465
 2864SOL    MW411488   3.799   1.447   4.537
 2865SOL     OW11489   0.015   1.180   4.600
 2865SOL    HW211490   0.047   1.092   4.580
 2865SOL    HW311491   0.090   1.237   4.583
 2865SOL    MW411492   0.029   1.175   4.595
 2866SOL     OW11493   0.258   1.335   4.544
 2866SOL    HW211494   0.315   1.276   4.593
 2866SOL    HW311495   0.295   1.422   4.558
 2866SOL    MW411496   0.270   1.339   4.552
 2867SOL     OW11497   3.804   1.659   4.346
 2867SOL    HW211498   3.898   1.677   4.358
 2867SOL    HW311499   3.761   1.709   4.416
 2867SOL    MW411500   3.811   1.668   4.357
 2868SOL     OW11501   3.345   2.946   4.534
 2868SOL    HW211502   3.377   2.914   4.449
 2868SOL    HW311503   3.420   2.993   4.571
 2868SOL    MW411504   3.359   2.948   4.527
 2869SOL     OW11505   4.269   1.975   4.201
 2869SOL    HW211506   4.177   1.950   4.197
 2869SOL    HW311507   4.283   2.005   4.290
 2869SOL    MW411508   4.259   1.976   4.212
 2870SOL     OW11509   0.203   2.232   4.617
 2870SOL    HW211510   0.294   2.237   4.588
 2870SOL    HW311511   0.178   2.322   4.633
 2870SOL    MW411512   0.212   2.244   4.615
 2871SOL     OW11513   4.338   2.092   4.465
 2871SOL    HW211514   4.283   2.059   4.536
 2871SOL    HW311515   4.302   2.178   4.444
 2871SOL    MW411516   4.326   2.099   4.472
 2872SOL     OW11517   3.548   2.491   4.548
 2872SOL    HW211518   3.478   2.549   4.579
 2872SOL    HW311519   3.523   2.405   4.581
 2872SOL    MW411520   3.535   2.488   4.556
 2873SOL     OW11521   0.480   2.544   4.639
 2873SOL    HW211522   0.491   2.449   4.642
 2873SOL    HW311523   0.564   2.579   4.666
 2873SOL    MW411524   0.492   2.536   4.643
 2874SOL     OW11525   4.318   2.779   4.512
 2874SOL    HW211526   4.388   2.834   4.546
 2874SOL    HW311527   4.314   2.801   4.418
 2874SOL    MW411528   4.326   2.789   4.504
 2875SOL     OW11529   0.127   3.120   4.475
 2875SOL    HW211530   0.116   3.146   4.384
 2875SOL    HW311531   0.209   3.160   4.502
 2875SOL    MW411532   0.136   3.128   4.467
 2876SOL     OW11533   0.302   3.558   4.515
 2876SOL    HW211534   0.267   3.592   4.433
 2876SOL    HW311535   0.227   3.518   4.559
 2876SOL    MW411536   0.288   3.557   4.510
 2877SOL     OW11537   4.308   4.667   4.672
 2877SOL    HW211538   4.233   4.698   4.622
 2877SOL    HW311539   4.312   4.724   4.748
 2877SOL    MW411540   4.299   4.678   4.675
 2878SOL     OW11541   3.774   0.055   4.521
 2878SOL    HW211542   3.704   0.104   4.564
 2878SOL    HW311543   3.783   0.097   4.435
 2878SOL    MW411544   3.766   0.067   4.515
 2879SOL     OW11545   0.238   4.417   4.809
 2879SOL    HW211546   0.162   4.366   4.779
 2879SOL    HW311547   0.268   4.371   4.887
 2879SOL    MW411548   0.232   4.404   4.815
 2880SOL     OW11549   3.637   0.447   4.625
 2880SOL    HW211550   3.621   0.353   4.630
 2880SOL    HW311551   3.556   0.483   4.587
 2880SOL    MW411552   3.624   0.439   4.621
 2881SOL     OW11553   4.272   4.401   4.311
 2881SOL    HW211554   4.334   4.341   4.270
 2881SOL    HW311555   4.298   4.402   4.403
 2881SOL    MW411556   4.283   4.393   4.318
 2882NA      NA11557   2.586   4.353   0.569
 2883NA      NA11558   0.565   2.338   0.369
   4.49070   4.66690  10.00000
