Gromacs Runs On Most of All Computer Systems in water t= 540.00000 step= 540000
11558
    1RG35     P    1   2.099   2.862   4.458
    1RG35   O1P    2   2.084   2.784   4.332
    1RG35   O2P    3   2.034   2.997   4.460
    1RG35   O5'    4   2.019   2.783   4.569
    1RG35   C5'    5   1.876   2.772   4.576
    1RG35  H5'1    6   1.843   2.743   4.476
    1RG35  H5'2    7   1.833   2.869   4.604
    1RG35   C4'    8   1.818   2.665   4.677
    1RG35   H4'    9   1.714   2.683   4.703
    1RG35   O4'   10   1.819   2.537   4.629
    1RG35   C1'   11   1.913   2.458   4.700
    1RG35   H1'   12   1.865   2.389   4.768
    1RG35    N9   13   1.988   2.383   4.589
    1RG35    C8   14   2.073   2.424   4.486
    1RG35    H8   15   2.107   2.526   4.473
    1RG35    N7   16   2.098   2.333   4.400
    1RG35    C5   17   2.026   2.216   4.443
    1RG35    C6   18   2.000   2.093   4.379
    1RG35    O6   19   2.049   2.053   4.271
    1RG35    N1   20   1.904   2.016   4.444
    1RG35    H1   21   1.906   1.918   4.420
    1RG35    C2   22   1.848   2.058   4.558
    1RG35    N2   23   1.773   1.971   4.609
    1RG35   H21   24   1.787   1.875   4.581
    1RG35   H22   25   1.723   1.996   4.693
    1RG35    N3   26   1.867   2.174   4.619
    1RG35    C4   27   1.959   2.252   4.555
    1RG35   C3'   28   1.891   2.665   4.806
    1RG35   H3'   29   1.942   2.758   4.831
    1RG35   C2'   30   1.996   2.556   4.783
    1RG35  H2'1   31   2.080   2.590   4.722
    1RG35   O2'   32   2.049   2.504   4.899
    1RG35  HO'2   33   2.114   2.563   4.938
    1RG35   O3'   34   1.801   2.626   4.910
    1RG35   H3T   35   1.863   2.588   4.973
    1RG35   O3P   36   2.234   2.871   4.512
    2SOL     OW   37   0.516   0.188   0.423
    2SOL    HW2   38   0.528   0.099   0.389
    2SOL    HW3   39   0.600   0.231   0.407
    2SOL    MW4   40   0.529   0.182   0.417
    3SOL     OW   41   4.055   0.081   0.405
    3SOL    HW2   42   4.143   0.088   0.367
    3SOL    HW3   43   4.032  -0.011   0.393
    3SOL    MW4   44   4.064   0.070   0.398
    4SOL     OW   45   3.809   0.443   0.464
    4SOL    HW2   46   3.749   0.506   0.424
    4SOL    HW3   47   3.804   0.462   0.558
    4SOL    MW4   48   3.800   0.454   0.471
    5SOL     OW   49   0.354   1.454   0.458
    5SOL    HW2   50   0.341   1.359   0.455
    5SOL    HW3   51   0.266   1.490   0.447
    5SOL    MW4   52   0.341   1.446   0.456
    6SOL     OW   53   1.468   0.823   0.403
    6SOL    HW2   54   1.433   0.891   0.345
    6SOL    HW3   55   1.553   0.857   0.431
    6SOL    MW4   56   1.474   0.837   0.399
    7SOL     OW   57   0.275   0.514   0.441
    7SOL    HW2   58   0.272   0.493   0.534
    7SOL    HW3   59   0.274   0.429   0.397
    7SOL    MW4   60   0.274   0.500   0.448
    8SOL     OW   61   0.488   0.974   0.467
    8SOL    HW2   62   0.498   0.954   0.560
    8SOL    HW3   63   0.474   0.888   0.426
    8SOL    MW4   64   0.487   0.960   0.474
    9SOL     OW   65   0.927   0.955   0.437
    9SOL    HW2   66   0.906   0.936   0.529
    9SOL    HW3   67   0.845   0.987   0.400
    9SOL    MW4   68   0.913   0.957   0.445
   10SOL     OW   69   0.693   1.100   0.338
   10SOL    HW2   70   0.660   1.139   0.257
   10SOL    HW3   71   0.616   1.059   0.378
   10SOL    MW4   72   0.678   1.100   0.333
   11SOL     OW   73   0.013   1.904   0.489
   11SOL    HW2   74  -0.068   1.854   0.500
   11SOL    HW3   75   0.081   1.847   0.523
   11SOL    MW4   76   0.011   1.890   0.495
   12SOL     OW   77   4.060   2.380   0.592
   12SOL    HW2   78   3.981   2.327   0.603
   12SOL    HW3   79   4.033   2.468   0.619
   12SOL    MW4   80   4.046   2.385   0.597
   13SOL     OW   81   0.022   1.558   0.469
   13SOL    HW2   82   0.018   1.595   0.558
   13SOL    HW3   83  -0.036   1.615   0.418
   13SOL    MW4   84   0.014   1.571   0.474
   14SOL     OW   85   0.762   2.324   0.210
   14SOL    HW2   86   0.839   2.351   0.261
   14SOL    HW3   87   0.718   2.406   0.189
   14SOL    MW4   88   0.767   2.338   0.214
   15SOL     OW   89   0.191   2.771   0.478
   15SOL    HW2   90   0.173   2.860   0.450
   15SOL    HW3   91   0.278   2.752   0.444
   15SOL    MW4   92   0.200   2.780   0.470
   16SOL     OW   93   4.153   3.372   0.448
   16SOL    HW2   94   4.208   3.309   0.401
   16SOL    HW3   95   4.122   3.323   0.524
   16SOL    MW4   96   4.156   3.357   0.452
   17SOL     OW   97   0.211   3.042   0.478
   17SOL    HW2   98   0.301   3.072   0.465
   17SOL    HW3   99   0.161   3.122   0.497
   17SOL    MW4  100   0.216   3.057   0.479
   18SOL     OW  101   0.649   3.306   0.306
   18SOL    HW2  102   0.726   3.263   0.342
   18SOL    HW3  103   0.641   3.387   0.357
   18SOL    MW4  104   0.658   3.311   0.317
   19SOL     OW  105   0.655   3.833   0.332
   19SOL    HW2  106   0.736   3.838   0.282
   19SOL    HW3  107   0.648   3.918   0.375
   19SOL    MW4  108   0.665   3.845   0.331
   20SOL     OW  109   4.293   3.854   0.384
   20SOL    HW2  110   4.293   3.889   0.473
   20SOL    HW3  111   4.293   3.759   0.397
   20SOL    MW4  112   4.293   3.846   0.398
   21SOL     OW  113   0.162   3.775   0.181
   21SOL    HW2  114   0.239   3.806   0.229
   21SOL    HW3  115   0.166   3.822   0.097
   21SOL    MW4  116   0.173   3.785   0.176
   22SOL     OW  117   0.071   4.503   0.421
   22SOL    HW2  118   0.030   4.430   0.374
   22SOL    HW3  119   0.026   4.506   0.506
   22SOL    MW4  120   0.060   4.494   0.426
   23SOL     OW  121   4.454   4.296   0.256
   23SOL    HW2  122   4.479   4.210   0.223
   23SOL    HW3  123   4.360   4.289   0.275
   23SOL    MW4  124   4.445   4.284   0.254
   24SOL     OW  125   4.487   4.010   0.246
   24SOL    HW2  126   4.417   3.964   0.291
   24SOL    HW3  127   4.546   3.941   0.214
   24SOL    MW4  128   4.486   3.995   0.247
   25SOL     OW  129   0.464   3.129   0.433
   25SOL    HW2  130   0.480   3.173   0.516
   25SOL    HW3  131   0.511   3.181   0.368
   25SOL    MW4  132   0.472   3.141   0.435
   26SOL     OW  133   0.524   4.562   0.414
   26SOL    HW2  134   0.557   4.554   0.503
   26SOL    HW3  135   0.455   4.496   0.408
   26SOL    MW4  136   0.519   4.552   0.425
   27SOL     OW  137   0.254   0.250   0.356
   27SOL    HW2  138   0.209   0.180   0.308
   27SOL    HW3  139   0.338   0.211   0.381
   27SOL    MW4  140   0.259   0.235   0.353
   28SOL     OW  141   0.042   0.627   0.320
   28SOL    HW2  142   0.054   0.627   0.225
   28SOL    HW3  143   0.120   0.582   0.353
   28SOL    MW4  144   0.054   0.621   0.312
   29SOL     OW  145   0.975   4.512   0.372
   29SOL    HW2  146   1.037   4.445   0.399
   29SOL    HW3  147   0.892   4.466   0.361
   29SOL    MW4  148   0.972   4.497   0.374
   30SOL     OW  149   1.171   1.077   0.480
   30SOL    HW2  150   1.089   1.028   0.469
   30SOL    HW3  151   1.216   1.032   0.551
   30SOL    MW4  152   1.166   1.065   0.488
   31SOL     OW  153   0.704   0.567   0.446
   31SOL    HW2  154   0.785   0.607   0.415
   31SOL    HW3  155   0.726   0.475   0.458
   31SOL    MW4  156   0.718   0.560   0.443
   32SOL     OW  157   0.300   1.180   0.492
   32SOL    HW2  158   0.350   1.098   0.490
   32SOL    HW3  159   0.217   1.159   0.450
   32SOL    MW4  160   0.296   1.166   0.486
   33SOL     OW  161   0.211   2.251   0.268
   33SOL    HW2  162   0.131   2.286   0.306
   33SOL    HW3  163   0.188   2.230   0.177
   33SOL    MW4  164   0.198   2.253   0.261
   34SOL     OW  165   0.695   2.061   0.247
   34SOL    HW2  166   0.727   2.141   0.206
   34SOL    HW3  167   0.771   2.025   0.293
   34SOL    MW4  168   0.709   2.066   0.248
   35SOL     OW  169   0.831   2.677   0.196
   35SOL    HW2  170   0.921   2.645   0.195
   35SOL    HW3  171   0.838   2.767   0.229
   35SOL    MW4  172   0.843   2.685   0.200
   36SOL     OW  173   0.541   2.632   0.129
   36SOL    HW2  174   0.530   2.663   0.039
   36SOL    HW3  175   0.629   2.660   0.154
   36SOL    MW4  176   0.551   2.640   0.120
   37SOL     OW  177   3.848   2.457   0.259
   37SOL    HW2  178   3.860   2.432   0.167
   37SOL    HW3  179   3.929   2.431   0.302
   37SOL    MW4  180   3.860   2.450   0.253
   38SOL     OW  181   1.347   2.523   0.463
   38SOL    HW2  182   1.364   2.443   0.413
   38SOL    HW3  183   1.424   2.578   0.448
   38SOL    MW4  184   1.359   2.520   0.454
   39SOL     OW  185   0.567   2.447   0.518
   39SOL    HW2  186   0.525   2.531   0.500
   39SOL    HW3  187   0.659   2.468   0.530
   39SOL    MW4  188   0.573   2.461   0.518
   40SOL     OW  189   4.325   3.164   0.346
   40SOL    HW2  190   4.344   3.123   0.261
   40SOL    HW3  191   4.260   3.107   0.386
   40SOL    MW4  192   4.319   3.151   0.340
   41SOL     OW  193   0.466   2.692   0.405
   41SOL    HW2  194   0.496   2.680   0.315
   41SOL    HW3  195   0.505   2.775   0.432
   41SOL    MW4  196   0.475   2.701   0.397
   42SOL     OW  197   0.926   0.437   0.169
   42SOL    HW2  198   0.909   0.464   0.079
   42SOL    HW3  199   0.923   0.519   0.219
   42SOL    MW4  200   0.923   0.452   0.164
   43SOL     OW  201   0.327   3.581   0.440
   43SOL    HW2  202   0.318   3.675   0.421
   43SOL    HW3  203   0.421   3.564   0.431
   43SOL    MW4  204   0.338   3.592   0.436
   44SOL     OW  205   0.639   3.576   0.432
   44SOL    HW2  206   0.644   3.666   0.401
   44SOL    HW3  207   0.662   3.582   0.525
   44SOL    MW4  208   0.643   3.588   0.440
   45SOL     OW  209   1.119   3.626   0.501
   45SOL    HW2  210   1.048   3.582   0.455
   45SOL    HW3  211   1.192   3.564   0.496
   45SOL    MW4  212   1.119   3.612   0.494
   46SOL     OW  213   0.312   4.354   0.432
   46SOL    HW2  214   0.235   4.405   0.406
   46SOL    HW3  215   0.293   4.265   0.401
   46SOL    MW4  216   0.299   4.349   0.425
   47SOL     OW  217   0.919   3.508   0.340
   47SOL    HW2  218   0.927   3.556   0.257
   47SOL    HW3  219   0.825   3.501   0.355
   47SOL    MW4  220   0.907   3.513   0.331
   48SOL     OW  221   0.710   4.356   0.368
   48SOL    HW2  222   0.671   4.436   0.333
   48SOL    HW3  223   0.721   4.374   0.462
   48SOL    MW4  224   0.707   4.369   0.376
   49SOL     OW  225   0.786   0.285   0.374
   49SOL    HW2  226   0.855   0.219   0.375
   49SOL    HW3  227   0.796   0.329   0.290
   49SOL    MW4  228   0.796   0.282   0.363
   50SOL     OW  229   0.978   0.671   0.370
   50SOL    HW2  230   0.996   0.764   0.362
   50SOL    HW3  231   1.053   0.637   0.421
   50SOL    MW4  232   0.990   0.679   0.376
   51SOL     OW  233   0.461   0.705   0.375
   51SOL    HW2  234   0.397   0.637   0.392
   51SOL    HW3  235   0.545   0.659   0.372
   51SOL    MW4  236   0.464   0.690   0.377
   52SOL     OW  237   1.496   0.549   0.476
   52SOL    HW2  238   1.474   0.552   0.569
   52SOL    HW3  239   1.501   0.641   0.450
   52SOL    MW4  240   1.494   0.562   0.485
   53SOL     OW  241   1.966   0.842   0.375
   53SOL    HW2  242   1.885   0.889   0.396
   53SOL    HW3  243   1.946   0.793   0.296
   53SOL    MW4  244   1.952   0.842   0.368
   54SOL     OW  245   1.657   0.145   0.265
   54SOL    HW2  246   1.578   0.195   0.243
   54SOL    HW3  247   1.688   0.185   0.346
   54SOL    MW4  248   1.651   0.157   0.273
   55SOL     OW  249   0.869   1.686   0.411
   55SOL    HW2  250   0.779   1.654   0.397
   55SOL    HW3  251   0.877   1.694   0.506
   55SOL    MW4  252   0.858   1.683   0.421
   56SOL     OW  253   0.788   1.346   0.441
   56SOL    HW2  254   0.784   1.260   0.398
   56SOL    HW3  255   0.881   1.365   0.449
   56SOL    MW4  256   0.799   1.337   0.437
   57SOL     OW  257   1.370   1.672   0.159
   57SOL    HW2  258   1.290   1.647   0.204
   57SOL    HW3  259   1.341   1.700   0.072
   57SOL    MW4  260   1.356   1.672   0.154
   58SOL     OW  261   1.074   1.349   0.466
   58SOL    HW2  262   1.108   1.260   0.460
   58SOL    HW3  263   1.137   1.402   0.417
   58SOL    MW4  264   1.087   1.344   0.459
   59SOL     OW  265   1.163   1.585   0.317
   59SOL    HW2  266   1.210   1.642   0.379
   59SOL    HW3  267   1.074   1.581   0.350
   59SOL    MW4  268   1.158   1.592   0.330
   60SOL     OW  269   4.470   2.352   0.372
   60SOL    HW2  270   4.375   2.352   0.356
   60SOL    HW3  271   4.487   2.438   0.411
   60SOL    MW4  272   4.459   2.363   0.375
   61SOL     OW  273   0.504   1.870   0.223
   61SOL    HW2  274   0.548   1.791   0.192
   61SOL    HW3  275   0.563   1.941   0.198
   61SOL    MW4  276   0.518   1.869   0.216
   62SOL     OW  277   0.715   2.139   0.574
   62SOL    HW2  278   0.710   2.090   0.657
   62SOL    HW3  279   0.768   2.083   0.517
   62SOL    MW4  280   0.721   2.125   0.578
   63SOL     OW  281   0.395   2.070   0.396
   63SOL    HW2  282   0.312   2.106   0.365
   63SOL    HW3  283   0.425   2.014   0.324
   63SOL    MW4  284   0.388   2.067   0.383
   64SOL     OW  285   0.827   2.507   0.529
   64SOL    HW2  286   0.895   2.460   0.479
   64SOL    HW3  287   0.842   2.481   0.620
   64SOL    MW4  288   0.838   2.497   0.534
   65SOL     OW  289   1.012   2.374   0.371
   65SOL    HW2  290   1.064   2.309   0.418
   65SOL    HW3  291   1.074   2.446   0.353
   65SOL    MW4  292   1.027   2.375   0.375
   66SOL     OW  293   0.620   2.903   0.475
   66SOL    HW2  294   0.575   2.986   0.459
   66SOL    HW3  295   0.628   2.897   0.570
   66SOL    MW4  296   0.615   2.913   0.485
   67SOL     OW  297   0.894   3.212   0.391
   67SOL    HW2  298   0.902   3.220   0.486
   67SOL    HW3  299   0.945   3.286   0.357
   67SOL    MW4  300   0.902   3.223   0.399
   68SOL     OW  301   2.205   3.605   0.532
   68SOL    HW2  302   2.157   3.602   0.614
   68SOL    HW3  303   2.172   3.530   0.483
   68SOL    MW4  304   2.194   3.594   0.536
   69SOL     OW  305   0.988   4.051   0.483
   69SOL    HW2  306   0.896   4.040   0.458
   69SOL    HW3  307   0.990   4.028   0.576
   69SOL    MW4  308   0.976   4.047   0.492
   70SOL     OW  309   0.704   4.082   0.440
   70SOL    HW2  310   0.643   4.096   0.513
   70SOL    HW3  311   0.711   4.168   0.398
   70SOL    MW4  312   0.697   4.095   0.444
   71SOL     OW  313   1.135   4.299   0.478
   71SOL    HW2  314   1.072   4.228   0.473
   71SOL    HW3  315   1.130   4.330   0.569
   71SOL    MW4  316   1.126   4.294   0.489
   72SOL     OW  317   1.205   0.534   0.497
   72SOL    HW2  318   1.186   0.450   0.454
   72SOL    HW3  319   1.291   0.559   0.463
   72SOL    MW4  320   1.214   0.526   0.487
   73SOL     OW  321   1.017   0.111   0.441
   73SOL    HW2  322   1.011   0.019   0.416
   73SOL    HW3  323   0.978   0.116   0.528
   73SOL    MW4  324   1.011   0.100   0.449
   74SOL     OW  325   1.413   0.305   0.329
   74SOL    HW2  326   1.320   0.319   0.312
   74SOL    HW3  327   1.442   0.385   0.374
   74SOL    MW4  328   1.405   0.318   0.333
   75SOL     OW  329   2.148   0.057   0.306
   75SOL    HW2  330   2.184  -0.031   0.294
   75SOL    HW3  331   2.071   0.044   0.361
   75SOL    MW4  332   2.142   0.043   0.312
   76SOL     OW  333   1.138   0.319   0.316
   76SOL    HW2  334   1.099   0.243   0.360
   76SOL    HW3  335   1.072   0.346   0.251
   76SOL    MW4  336   1.124   0.312   0.313
   77SOL     OW  337   2.288   0.511   0.387
   77SOL    HW2  338   2.196   0.533   0.404
   77SOL    HW3  339   2.294   0.417   0.403
   77SOL    MW4  340   2.277   0.502   0.391
   78SOL     OW  341   2.437   1.036   0.396
   78SOL    HW2  342   2.475   0.976   0.332
   78SOL    HW3  343   2.344   1.016   0.395
   78SOL    MW4  344   2.430   1.025   0.387
   79SOL     OW  345   1.565   1.197   0.392
   79SOL    HW2  346   1.507   1.146   0.334
   79SOL    HW3  347   1.552   1.288   0.365
   79SOL    MW4  348   1.555   1.202   0.381
   80SOL     OW  349   1.716   0.954   0.435
   80SOL    HW2  350   1.730   0.963   0.529
   80SOL    HW3  351   1.687   1.040   0.406
   80SOL    MW4  352   1.714   0.966   0.443
   81SOL     OW  353   1.349   1.059   0.269
   81SOL    HW2  354   1.287   1.075   0.341
   81SOL    HW3  355   1.294   1.052   0.191
   81SOL    MW4  356   1.333   1.060   0.268
   82SOL     OW  357   1.735   1.605   0.463
   82SOL    HW2  358   1.774   1.687   0.492
   82SOL    HW3  359   1.682   1.577   0.537
   82SOL    MW4  360   1.733   1.612   0.477
   83SOL     OW  361   1.136   2.634   0.324
   83SOL    HW2  362   1.214   2.600   0.368
   83SOL    HW3  363   1.085   2.673   0.395
   83SOL    MW4  364   1.140   2.634   0.339
   84SOL     OW  365   1.582   2.625   0.328
   84SOL    HW2  366   1.667   2.619   0.372
   84SOL    HW3  367   1.600   2.596   0.238
   84SOL    MW4  368   1.596   2.620   0.322
   85SOL     OW  369   2.146   1.713   0.510
   85SOL    HW2  370   2.218   1.655   0.486
   85SOL    HW3  371   2.161   1.792   0.458
   85SOL    MW4  372   2.158   1.716   0.500
   86SOL     OW  373   1.585   2.078   0.483
   86SOL    HW2  374   1.651   2.136   0.445
   86SOL    HW3  375   1.599   1.994   0.439
   86SOL    MW4  376   1.595   2.075   0.472
   87SOL     OW  377   0.902   1.972   0.414
   87SOL    HW2  378   0.993   1.991   0.432
   87SOL    HW3  379   0.898   1.876   0.408
   87SOL    MW4  380   0.913   1.962   0.415
   88SOL     OW  381   0.862   2.923   0.329
   88SOL    HW2  382   0.875   3.017   0.334
   88SOL    HW3  383   0.778   2.908   0.372
   88SOL    MW4  384   0.853   2.933   0.336
   89SOL     OW  385   2.073   2.155   0.486
   89SOL    HW2  386   2.080   2.145   0.581
   89SOL    HW3  387   2.143   2.216   0.463
   89SOL    MW4  388   2.083   2.162   0.496
   90SOL     OW  389   2.034   0.584   0.466
   90SOL    HW2  390   2.002   0.673   0.455
   90SOL    HW3  391   1.954   0.530   0.465
   90SOL    MW4  392   2.019   0.589   0.464
   91SOL     OW  393   1.113   3.862   0.326
   91SOL    HW2  394   1.143   3.788   0.379
   91SOL    HW3  395   1.058   3.913   0.386
   91SOL    MW4  396   1.110   3.859   0.341
   92SOL     OW  397   2.072   2.703   0.392
   92SOL    HW2  398   2.068   2.799   0.397
   92SOL    HW3  399   2.162   2.685   0.363
   92SOL    MW4  400   2.084   2.713   0.389
   93SOL     OW  401   1.348   3.997   0.429
   93SOL    HW2  402   1.267   3.955   0.399
   93SOL    HW3  403   1.355   4.077   0.376
   93SOL    MW4  404   1.338   4.002   0.418
   94SOL     OW  405   1.767   3.080   0.392
   94SOL    HW2  406   1.849   3.033   0.382
   94SOL    HW3  407   1.700   3.012   0.394
   94SOL    MW4  408   1.769   3.065   0.391
   95SOL     OW  409   2.201   3.882   0.444
   95SOL    HW2  410   2.191   3.794   0.479
   95SOL    HW3  411   2.290   3.884   0.409
   95SOL    MW4  412   2.212   3.871   0.444
   96SOL     OW  413   0.895   3.793   0.177
   96SOL    HW2  414   0.985   3.810   0.205
   96SOL    HW3  415   0.892   3.823   0.086
   96SOL    MW4  416   0.907   3.799   0.169
   97SOL     OW  417   1.911   4.651   0.503
   97SOL    HW2  418   1.840   4.715   0.497
   97SOL    HW3  419   1.872   4.569   0.470
   97SOL    MW4  420   1.896   4.648   0.498
   98SOL     OW  421   2.009   4.650   0.755
   98SOL    HW2  422   2.025   4.556   0.762
   98SOL    HW3  423   1.981   4.662   0.664
   98SOL    MW4  424   2.008   4.639   0.744
   99SOL     OW  425   2.520   4.409   0.229
   99SOL    HW2  426   2.578   4.454   0.290
   99SOL    HW3  427   2.535   4.452   0.145
   99SOL    MW4  428   2.529   4.421   0.226
  100SOL     OW  429   1.403   4.287   0.353
  100SOL    HW2  430   1.323   4.300   0.404
  100SOL    HW3  431   1.422   4.374   0.316
  100SOL    MW4  432   1.395   4.300   0.355
  101SOL     OW  433   2.529   0.599   0.515
  101SOL    HW2  434   2.454   0.561   0.469
  101SOL    HW3  435   2.562   0.666   0.455
  101SOL    MW4  436   2.523   0.603   0.501
  102SOL     OW  437   1.543   1.823   0.361
  102SOL    HW2  438   1.609   1.756   0.379
  102SOL    HW3  439   1.499   1.792   0.282
  102SOL    MW4  440   1.546   1.810   0.353
  103SOL     OW  441   2.200   1.277   0.466
  103SOL    HW2  442   2.148   1.356   0.455
  103SOL    HW3  443   2.291   1.307   0.467
  103SOL    MW4  444   2.205   1.291   0.465
  104SOL     OW  445   2.483   1.299   0.495
  104SOL    HW2  446   2.578   1.296   0.487
  104SOL    HW3  447   2.454   1.213   0.467
  104SOL    MW4  448   2.492   1.288   0.491
  105SOL     OW  449   2.221   1.960   0.382
  105SOL    HW2  450   2.160   2.025   0.416
  105SOL    HW3  451   2.307   2.001   0.389
  105SOL    MW4  452   2.224   1.974   0.387
  106SOL     OW  453   1.532   1.460   0.291
  106SOL    HW2  454   1.487   1.523   0.234
  106SOL    HW3  455   1.601   1.511   0.333
  106SOL    MW4  456   1.535   1.475   0.289
  107SOL     OW  457   1.289   1.783   0.495
  107SOL    HW2  458   1.377   1.797   0.459
  107SOL    HW3  459   1.304   1.747   0.582
  107SOL    MW4  460   1.303   1.780   0.501
  108SOL     OW  461   2.265   2.362   0.474
  108SOL    HW2  462   2.269   2.438   0.416
  108SOL    HW3  463   2.268   2.399   0.562
  108SOL    MW4  464   2.266   2.377   0.478
  109SOL     OW  465   1.774   3.342   0.481
  109SOL    HW2  466   1.774   3.253   0.446
  109SOL    HW3  467   1.853   3.382   0.444
  109SOL    MW4  468   1.784   3.335   0.471
  110SOL     OW  469   0.973   2.748   0.513
  110SOL    HW2  470   0.937   2.819   0.460
  110SOL    HW3  471   0.903   2.683   0.518
  110SOL    MW4  472   0.959   2.749   0.506
  111SOL     OW  473   1.549   3.542   0.544
  111SOL    HW2  474   1.563   3.626   0.501
  111SOL    HW3  475   1.618   3.486   0.510
  111SOL    MW4  476   1.560   3.546   0.533
  112SOL     OW  477   1.177   2.045   0.509
  112SOL    HW2  478   1.146   2.053   0.599
  112SOL    HW3  479   1.219   1.959   0.506
  112SOL    MW4  480   1.178   2.035   0.520
  113SOL     OW  481   3.548   1.599   0.417
  113SOL    HW2  482   3.467   1.556   0.388
  113SOL    HW3  483   3.551   1.583   0.511
  113SOL    MW4  484   3.538   1.591   0.425
  114SOL     OW  485   1.798   2.288   0.483
  114SOL    HW2  486   1.872   2.230   0.465
  114SOL    HW3  487   1.823   2.372   0.444
  114SOL    MW4  488   1.811   2.292   0.475
  115SOL     OW  489   1.366   2.222   0.368
  115SOL    HW2  490   1.450   2.199   0.407
  115SOL    HW3  491   1.305   2.154   0.397
  115SOL    MW4  492   1.369   2.210   0.377
  116SOL     OW  493   1.284   3.426   0.518
  116SOL    HW2  494   1.373   3.460   0.520
  116SOL    HW3  495   1.287   3.354   0.455
  116SOL    MW4  496   1.296   3.421   0.510
  117SOL     OW  497   2.480   3.574   0.490
  117SOL    HW2  498   2.386   3.560   0.504
  117SOL    HW3  499   2.515   3.588   0.578
  117SOL    MW4  500   2.472   3.574   0.503
  118SOL     OW  501   1.828   4.395   0.399
  118SOL    HW2  502   1.771   4.324   0.429
  118SOL    HW3  503   1.914   4.354   0.391
  118SOL    MW4  504   1.832   4.380   0.402
  119SOL     OW  505   1.574   3.816   0.444
  119SOL    HW2  506   1.501   3.878   0.449
  119SOL    HW3  507   1.653   3.870   0.452
  119SOL    MW4  508   1.575   3.831   0.446
  120SOL     OW  509   1.604   4.557   0.371
  120SOL    HW2  510   1.618   4.625   0.305
  120SOL    HW3  511   1.679   4.499   0.362
  120SOL    MW4  512   1.616   4.559   0.361
  121SOL     OW  513   1.438   0.071   0.499
  121SOL    HW2  514   1.423   0.131   0.426
  121SOL    HW3  515   1.480  -0.005   0.460
  121SOL    MW4  516   1.441   0.069   0.484
  122SOL     OW  517   2.383   4.428   0.602
  122SOL    HW2  518   2.337   4.392   0.677
  122SOL    HW3  519   2.446   4.490   0.640
  122SOL    MW4  520   2.385   4.431   0.617
  123SOL     OW  521   2.292   0.236   0.440
  123SOL    HW2  522   2.279   0.195   0.526
  123SOL    HW3  523   2.239   0.184   0.381
  123SOL    MW4  524   2.283   0.224   0.444
  124SOL     OW  525   2.837   1.535   0.328
  124SOL    HW2  526   2.823   1.522   0.234
  124SOL    HW3  527   2.820   1.449   0.367
  124SOL    MW4  528   2.832   1.522   0.321
  125SOL     OW  529   2.981   0.436   0.499
  125SOL    HW2  530   2.897   0.425   0.455
  125SOL    HW3  531   3.017   0.517   0.463
  125SOL    MW4  532   2.975   0.445   0.488
  126SOL     OW  533   2.184   1.007   0.447
  126SOL    HW2  534   2.172   1.101   0.439
  126SOL    HW3  535   2.102   0.969   0.416
  126SOL    MW4  536   2.171   1.014   0.442
  127SOL     OW  537   2.767   1.302   0.474
  127SOL    HW2  538   2.774   1.207   0.466
  127SOL    HW3  539   2.818   1.324   0.552
  127SOL    MW4  540   2.775   1.292   0.483
  128SOL     OW  541   2.623   1.693   0.430
  128SOL    HW2  542   2.705   1.662   0.392
  128SOL    HW3  543   2.621   1.656   0.518
  128SOL    MW4  544   2.634   1.684   0.437
  129SOL     OW  545   3.130   1.887   0.404
  129SOL    HW2  546   3.096   1.933   0.481
  129SOL    HW3  547   3.225   1.887   0.416
  129SOL    MW4  548   3.138   1.893   0.416
  130SOL     OW  549   2.947   4.632   0.495
  130SOL    HW2  550   2.995   4.713   0.480
  130SOL    HW3  551   3.011   4.562   0.478
  130SOL    MW4  552   2.962   4.633   0.491
  131SOL     OW  553   1.867   1.838   0.571
  131SOL    HW2  554   1.959   1.828   0.544
  131SOL    HW3  555   1.871   1.888   0.653
  131SOL    MW4  556   1.880   1.843   0.578
  132SOL     OW  557   1.586   1.555   0.697
  132SOL    HW2  558   1.650   1.589   0.760
  132SOL    HW3  559   1.504   1.598   0.720
  132SOL    MW4  560   1.584   1.565   0.708
  133SOL     OW  561   2.437   2.131   0.525
  133SOL    HW2  562   2.372   2.195   0.496
  133SOL    HW3  563   2.520   2.166   0.493
  133SOL    MW4  564   2.439   2.144   0.517
  134SOL     OW  565   2.691   2.201   0.488
  134SOL    HW2  566   2.711   2.124   0.434
  134SOL    HW3  567   2.728   2.180   0.574
  134SOL    MW4  568   2.698   2.188   0.492
  135SOL     OW  569   2.511   2.719   0.456
  135SOL    HW2  570   2.573   2.649   0.475
  135SOL    HW3  571   2.489   2.757   0.541
  135SOL    MW4  572   2.516   2.715   0.469
  136SOL     OW  573   1.838   2.567   0.443
  136SOL    HW2  574   1.851   2.583   0.537
  136SOL    HW3  575   1.918   2.600   0.402
  136SOL    MW4  576   1.850   2.574   0.450
  137SOL     OW  577   1.547   2.893   0.428
  137SOL    HW2  578   1.542   2.879   0.523
  137SOL    HW3  579   1.544   2.805   0.390
  137SOL    MW4  580   1.546   2.879   0.436
  138SOL     OW  581   2.015   4.044   0.330
  138SOL    HW2  582   1.998   3.994   0.251
  138SOL    HW3  583   2.081   3.993   0.377
  138SOL    MW4  584   2.021   4.031   0.326
  139SOL     OW  585   2.444   3.926   0.340
  139SOL    HW2  586   2.501   3.861   0.298
  139SOL    HW3  587   2.485   4.010   0.321
  139SOL    MW4  588   2.457   3.929   0.332
  140SOL     OW  589   1.809   4.022   0.510
  140SOL    HW2  590   1.738   4.086   0.515
  140SOL    HW3  591   1.875   4.065   0.456
  140SOL    MW4  592   1.808   4.036   0.503
  141SOL     OW  593   2.075   3.418   0.367
  141SOL    HW2  594   2.105   3.338   0.408
  141SOL    HW3  595   2.063   3.395   0.274
  141SOL    MW4  596   2.077   3.405   0.360
  142SOL     OW  597   2.264   4.471   0.358
  142SOL    HW2  598   2.341   4.434   0.315
  142SOL    HW3  599   2.288   4.476   0.451
  142SOL    MW4  600   2.277   4.467   0.365
  143SOL     OW  601   2.081   4.288   0.457
  143SOL    HW2  602   2.103   4.210   0.407
  143SOL    HW3  603   2.141   4.355   0.425
  143SOL    MW4  604   2.092   4.287   0.447
  144SOL     OW  605   3.084   0.191   0.500
  144SOL    HW2  606   3.056   0.280   0.480
  144SOL    HW3  607   3.108   0.194   0.593
  144SOL    MW4  608   3.084   0.203   0.510
  145SOL     OW  609   2.605   3.706   0.260
  145SOL    HW2  610   2.552   3.666   0.329
  145SOL    HW3  611   2.645   3.631   0.214
  145SOL    MW4  612   2.604   3.691   0.263
  146SOL     OW  613   2.526   4.202   0.558
  146SOL    HW2  614   2.486   4.287   0.578
  146SOL    HW3  615   2.453   4.140   0.560
  146SOL    MW4  616   2.511   4.205   0.561
  147SOL     OW  617   2.570   0.196   0.444
  147SOL    HW2  618   2.617   0.274   0.413
  147SOL    HW3  619   2.480   0.210   0.414
  147SOL    MW4  620   2.564   0.208   0.436
  148SOL     OW  621   1.778   0.481   0.516
  148SOL    HW2  622   1.778   0.385   0.521
  148SOL    HW3  623   1.686   0.504   0.503
  148SOL    MW4  624   1.765   0.471   0.515
  149SOL     OW  625   3.108   0.685   0.376
  149SOL    HW2  626   3.114   0.780   0.385
  149SOL    HW3  627   3.197   0.653   0.391
  149SOL    MW4  628   3.120   0.694   0.379
  150SOL     OW  629   2.360   1.553   0.455
  150SOL    HW2  630   2.414   1.474   0.454
  150SOL    HW3  631   2.417   1.621   0.419
  150SOL    MW4  632   2.375   1.551   0.450
  151SOL     OW  633   2.663   0.811   0.390
  151SOL    HW2  634   2.695   0.893   0.427
  151SOL    HW3  635   2.726   0.788   0.322
  151SOL    MW4  636   2.675   0.819   0.386
  152SOL     OW  637   3.091   1.616   0.417
  152SOL    HW2  638   3.004   1.596   0.383
  152SOL    HW3  639   3.092   1.712   0.426
  152SOL    MW4  640   3.080   1.626   0.414
  153SOL     OW  641   3.524   1.118   0.431
  153SOL    HW2  642   3.550   1.026   0.422
  153SOL    HW3  643   3.502   1.128   0.524
  153SOL    MW4  644   3.524   1.107   0.442
  154SOL     OW  645   3.647   2.002   0.392
  154SOL    HW2  646   3.672   2.090   0.367
  154SOL    HW3  647   3.684   1.990   0.480
  154SOL    MW4  648   3.655   2.012   0.400
  155SOL     OW  649   2.669   0.117   0.718
  155SOL    HW2  650   2.664   0.198   0.770
  155SOL    HW3  651   2.643   0.144   0.630
  155SOL    MW4  652   2.665   0.132   0.713
  156SOL     OW  653   3.114   2.021   0.652
  156SOL    HW2  654   3.021   2.042   0.660
  156SOL    HW3  655   3.135   1.972   0.731
  156SOL    MW4  656   3.104   2.017   0.663
  157SOL     OW  657   2.687   2.514   0.474
  157SOL    HW2  658   2.766   2.564   0.455
  157SOL    HW3  659   2.697   2.433   0.424
  157SOL    MW4  660   2.698   2.510   0.465
  158SOL     OW  661   2.754   1.941   0.384
  158SOL    HW2  662   2.839   1.899   0.376
  158SOL    HW3  663   2.692   1.868   0.390
  158SOL    MW4  664   2.757   1.926   0.383
  159SOL     OW  665   2.321   2.592   0.304
  159SOL    HW2  666   2.352   2.567   0.217
  159SOL    HW3  667   2.398   2.629   0.347
  159SOL    MW4  668   2.336   2.594   0.298
  160SOL     OW  669   2.672   2.941   0.421
  160SOL    HW2  670   2.613   2.865   0.423
  160SOL    HW3  671   2.613   3.016   0.422
  160SOL    MW4  672   2.656   2.941   0.421
  161SOL     OW  673   3.137   3.129   0.487
  161SOL    HW2  674   3.070   3.062   0.473
  161SOL    HW3  675   3.145   3.135   0.582
  161SOL    MW4  676   3.129   3.121   0.498
  162SOL     OW  677   3.428   3.166   0.448
  162SOL    HW2  678   3.434   3.072   0.465
  162SOL    HW3  679   3.336   3.182   0.428
  162SOL    MW4  680   3.417   3.156   0.447
  163SOL     OW  681   2.220   3.196   0.480
  163SOL    HW2  682   2.241   3.221   0.570
  163SOL    HW3  683   2.305   3.172   0.442
  163SOL    MW4  684   2.234   3.196   0.487
  164SOL     OW  685   1.630   4.250   0.522
  164SOL    HW2  686   1.622   4.314   0.592
  164SOL    HW3  687   1.545   4.252   0.478
  164SOL    MW4  688   1.617   4.259   0.526
  165SOL     OW  689   3.418   4.079   0.373
  165SOL    HW2  690   3.336   4.086   0.324
  165SOL    HW3  691   3.398   4.018   0.444
  165SOL    MW4  692   3.404   4.072   0.375
  166SOL     OW  693   2.882   3.299   0.511
  166SOL    HW2  694   2.837   3.252   0.582
  166SOL    HW3  695   2.965   3.252   0.500
  166SOL    MW4  696   2.887   3.286   0.519
  167SOL     OW  697   2.614   3.347   0.378
  167SOL    HW2  698   2.706   3.344   0.405
  167SOL    HW3  699   2.577   3.421   0.427
  167SOL    MW4  700   2.622   3.356   0.388
  168SOL     OW  701   3.747   4.127   0.628
  168SOL    HW2  702   3.833   4.169   0.634
  168SOL    HW3  703   3.717   4.146   0.539
  168SOL    MW4  704   3.754   4.135   0.617
  169SOL     OW  705   3.150   4.152   0.281
  169SOL    HW2  706   3.129   4.244   0.301
  169SOL    HW3  707   3.068   4.114   0.250
  169SOL    MW4  708   3.136   4.159   0.280
  170SOL     OW  709   3.331   0.270   0.438
  170SOL    HW2  710   3.245   0.229   0.452
  170SOL    HW3  711   3.394   0.199   0.454
  170SOL    MW4  712   3.328   0.255   0.442
  171SOL     OW  713   2.685   4.589   0.396
  171SOL    HW2  714   2.645   4.677   0.393
  171SOL    HW3  715   2.777   4.606   0.417
  171SOL    MW4  716   2.692   4.603   0.398
  172SOL     OW  717   2.886   4.050   0.316
  172SOL    HW2  718   2.878   3.958   0.341
  172SOL    HW3  719   2.796   4.077   0.295
  172SOL    MW4  720   2.873   4.041   0.316
  173SOL     OW  721   2.737   0.457   0.415
  173SOL    HW2  722   2.667   0.501   0.465
  173SOL    HW3  723   2.754   0.516   0.342
  173SOL    MW4  724   2.730   0.471   0.412
  174SOL     OW  725   3.077   0.981   0.459
  174SOL    HW2  726   3.098   0.958   0.550
  174SOL    HW3  727   3.129   1.060   0.441
  174SOL    MW4  728   3.087   0.988   0.469
  175SOL     OW  729   3.341   0.555   0.441
  175SOL    HW2  730   3.320   0.462   0.440
  175SOL    HW3  731   3.429   0.560   0.404
  175SOL    MW4  732   3.350   0.543   0.436
  176SOL     OW  733   3.634   0.850   0.427
  176SOL    HW2  734   3.613   0.768   0.382
  176SOL    HW3  735   3.614   0.832   0.519
  176SOL    MW4  736   3.628   0.837   0.433
  177SOL     OW  737   3.512   0.393   0.187
  177SOL    HW2  738   3.480   0.335   0.256
  177SOL    HW3  739   3.595   0.355   0.160
  177SOL    MW4  740   3.519   0.380   0.193
  178SOL     OW  741   3.449   1.849   0.716
  178SOL    HW2  742   3.426   1.851   0.623
  178SOL    HW3  743   3.365   1.856   0.761
  178SOL    MW4  744   3.435   1.850   0.709
  179SOL     OW  745   3.410   1.843   0.448
  179SOL    HW2  746   3.454   1.762   0.424
  179SOL    HW3  747   3.470   1.912   0.419
  179SOL    MW4  748   3.424   1.842   0.441
  180SOL     OW  749   3.233   1.206   0.446
  180SOL    HW2  750   3.298   1.159   0.393
  180SOL    HW3  751   3.273   1.211   0.533
  180SOL    MW4  752   3.247   1.201   0.450
  181SOL     OW  753   4.064   1.659   0.266
  181SOL    HW2  754   3.977   1.694   0.284
  181SOL    HW3  755   4.079   1.678   0.173
  181SOL    MW4  756   4.054   1.666   0.256
  182SOL     OW  757   3.246   2.288   0.649
  182SOL    HW2  758   3.198   2.206   0.661
  182SOL    HW3  759   3.312   2.287   0.718
  182SOL    MW4  760   3.248   2.277   0.660
  183SOL     OW  761   3.593   2.628   0.518
  183SOL    HW2  762   3.605   2.635   0.612
  183SOL    HW3  763   3.543   2.547   0.505
  183SOL    MW4  764   3.588   2.619   0.528
  184SOL     OW  765   2.032   2.973   0.461
  184SOL    HW2  766   2.018   2.947   0.552
  184SOL    HW3  767   2.112   3.025   0.462
  184SOL    MW4  768   2.041   2.976   0.473
  185SOL     OW  769   3.226   2.627   0.318
  185SOL    HW2  770   3.232   2.644   0.224
  185SOL    HW3  771   3.287   2.555   0.334
  185SOL    MW4  772   3.235   2.620   0.307
  186SOL     OW  773   2.892   2.834   0.741
  186SOL    HW2  774   2.903   2.877   0.656
  186SOL    HW3  775   2.978   2.796   0.760
  186SOL    MW4  776   2.905   2.834   0.732
  187SOL     OW  777   2.851   0.665   0.228
  187SOL    HW2  778   2.939   0.684   0.259
  187SOL    HW3  779   2.859   0.664   0.133
  187SOL    MW4  780   2.864   0.668   0.220
  188SOL     OW  781   2.909   4.195   0.542
  188SOL    HW2  782   2.893   4.142   0.464
  188SOL    HW3  783   2.968   4.141   0.595
  188SOL    MW4  784   2.914   4.181   0.539
  189SOL     OW  785   3.248   3.565   0.517
  189SOL    HW2  786   3.273   3.565   0.425
  189SOL    HW3  787   3.312   3.509   0.559
  189SOL    MW4  788   3.260   3.558   0.510
  190SOL     OW  789   3.859   3.500   0.434
  190SOL    HW2  790   3.941   3.457   0.413
  190SOL    HW3  791   3.883   3.591   0.452
  190SOL    MW4  792   3.873   3.506   0.434
  191SOL     OW  793   3.782   3.281   0.730
  191SOL    HW2  794   3.877   3.272   0.721
  191SOL    HW3  795   3.747   3.256   0.645
  191SOL    MW4  796   3.790   3.277   0.718
  192SOL     OW  797   2.793   3.803   0.470
  192SOL    HW2  798   2.858   3.736   0.490
  192SOL    HW3  799   2.749   3.770   0.391
  192SOL    MW4  800   2.796   3.790   0.462
  193SOL     OW  801   2.470   3.119   0.377
  193SOL    HW2  802   2.464   3.088   0.286
  193SOL    HW3  803   2.517   3.202   0.370
  193SOL    MW4  804   2.475   3.126   0.364
  194SOL     OW  805   0.102   0.059   0.249
  194SOL    HW2  806   0.065   0.015   0.173
  194SOL    HW3  807   0.086  -0.002   0.322
  194SOL    MW4  808   0.095   0.045   0.249
  195SOL     OW  809   3.792   0.169   0.426
  195SOL    HW2  810   3.793   0.263   0.442
  195SOL    HW3  811   3.883   0.145   0.410
  195SOL    MW4  812   3.804   0.178   0.426
  196SOL     OW  813   3.640   0.599   0.306
  196SOL    HW2  814   3.595   0.538   0.247
  196SOL    HW3  815   3.719   0.623   0.259
  196SOL    MW4  816   3.644   0.594   0.292
  197SOL     OW  817   3.878   0.693   0.215
  197SOL    HW2  818   3.898   0.786   0.205
  197SOL    HW3  819   3.959   0.654   0.248
  197SOL    MW4  820   3.892   0.700   0.218
  198SOL     OW  821   4.060   0.555   0.359
  198SOL    HW2  822   4.137   0.501   0.373
  198SOL    HW3  823   3.987   0.503   0.393
  198SOL    MW4  824   4.060   0.541   0.365
  199SOL     OW  825   4.455   0.858   0.443
  199SOL    HW2  826   4.360   0.852   0.440
  199SOL    HW3  827   4.485   0.781   0.393
  199SOL    MW4  828   4.447   0.847   0.436
  200SOL     OW  829   3.930   0.947   0.380
  200SOL    HW2  830   3.922   1.042   0.379
  200SOL    HW3  831   3.842   0.916   0.403
  200SOL    MW4  832   3.917   0.955   0.383
  201SOL     OW  833   4.080   1.450   0.454
  201SOL    HW2  834   4.093   1.524   0.395
  201SOL    HW3  835   4.164   1.404   0.453
  201SOL    MW4  836   4.093   1.454   0.446
  202SOL     OW  837   3.667   1.344   0.326
  202SOL    HW2  838   3.610   1.278   0.366
  202SOL    HW3  839   3.622   1.427   0.343
  202SOL    MW4  840   3.654   1.346   0.334
  203SOL     OW  841   3.318   1.459   0.350
  203SOL    HW2  842   3.250   1.525   0.363
  203SOL    HW3  843   3.284   1.381   0.395
  203SOL    MW4  844   3.305   1.457   0.358
  204SOL     OW  845   2.801   1.029   0.487
  204SOL    HW2  846   2.805   1.003   0.579
  204SOL    HW3  847   2.888   1.009   0.453
  204SOL    MW4  848   2.813   1.023   0.495
  205SOL     OW  849   3.645   2.290   0.392
  205SOL    HW2  850   3.706   2.334   0.333
  205SOL    HW3  851   3.695   2.275   0.472
  205SOL    MW4  852   3.660   2.294   0.395
  206SOL     OW  853   4.153   2.970   0.461
  206SOL    HW2  854   4.148   2.875   0.450
  206SOL    HW3  855   4.061   2.999   0.462
  206SOL    MW4  856   4.140   2.961   0.460
  207SOL     OW  857   2.950   2.632   0.455
  207SOL    HW2  858   2.972   2.592   0.539
  207SOL    HW3  859   3.031   2.627   0.404
  207SOL    MW4  860   2.964   2.626   0.459
  208SOL     OW  861   2.964   3.567   0.524
  208SOL    HW2  862   3.060   3.576   0.523
  208SOL    HW3  863   2.948   3.480   0.488
  208SOL    MW4  864   2.975   3.557   0.519
  209SOL     OW  865   3.387   2.818   0.453
  209SOL    HW2  866   3.462   2.758   0.451
  209SOL    HW3  867   3.315   2.767   0.416
  209SOL    MW4  868   3.387   2.803   0.448
  210SOL     OW  869   3.872   3.008   0.469
  210SOL    HW2  870   3.852   2.929   0.419
  210SOL    HW3  871   3.818   3.076   0.431
  210SOL    MW4  872   3.862   3.007   0.458
  211SOL     OW  873   3.813   2.726   0.396
  211SOL    HW2  874   3.836   2.662   0.329
  211SOL    HW3  875   3.733   2.691   0.436
  211SOL    MW4  876   3.805   2.713   0.393
  212SOL     OW  877   3.915   4.124   0.242
  212SOL    HW2  878   3.943   4.047   0.293
  212SOL    HW3  879   3.888   4.088   0.158
  212SOL    MW4  880   3.915   4.109   0.238
  213SOL     OW  881   3.417   2.426   0.464
  213SOL    HW2  882   3.362   2.362   0.509
  213SOL    HW3  883   3.485   2.374   0.421
  213SOL    MW4  884   3.419   2.411   0.464
  214SOL     OW  885   3.318   3.876   0.562
  214SOL    HW2  886   3.355   3.876   0.651
  214SOL    HW3  887   3.280   3.789   0.553
  214SOL    MW4  888   3.318   3.865   0.573
  215SOL     OW  889   4.332   3.997   0.626
  215SOL    HW2  890   4.301   3.975   0.714
  215SOL    HW3  891   4.318   4.091   0.618
  215SOL    MW4  892   4.326   4.007   0.636
  216SOL     OW  893   3.685   4.211   0.367
  216SOL    HW2  894   3.762   4.188   0.316
  216SOL    HW3  895   3.611   4.175   0.318
  216SOL    MW4  896   3.685   4.203   0.354
  217SOL     OW  897   3.641   4.465   0.475
  217SOL    HW2  898   3.666   4.392   0.418
  217SOL    HW3  899   3.714   4.474   0.535
  217SOL    MW4  900   3.654   4.456   0.475
  218SOL     OW  901   4.355   0.201   0.372
  218SOL    HW2  902   4.428   0.161   0.325
  218SOL    HW3  903   4.373   0.184   0.465
  218SOL    MW4  904   4.367   0.194   0.378
  219SOL     OW  905   4.158   0.812   0.454
  219SOL    HW2  906   4.090   0.862   0.409
  219SOL    HW3  907   4.133   0.720   0.439
  219SOL    MW4  908   4.146   0.806   0.446
  220SOL     OW  909   0.609   1.534   0.363
  220SOL    HW2  910   0.673   1.467   0.388
  220SOL    HW3  911   0.525   1.498   0.393
  220SOL    MW4  912   0.606   1.520   0.370
  221SOL     OW  913   4.323   0.471   0.414
  221SOL    HW2  914   4.346   0.384   0.380
  221SOL    HW3  915   4.393   0.528   0.383
  221SOL    MW4  916   4.335   0.467   0.405
  222SOL     OW  917   4.339   1.351   0.486
  222SOL    HW2  918   4.396   1.428   0.486
  222SOL    HW3  919   4.320   1.336   0.579
  222SOL    MW4  920   4.344   1.359   0.498
  223SOL     OW  921   3.530   0.085   0.454
  223SOL    HW2  922   3.546  -0.009   0.455
  223SOL    HW3  923   3.615   0.124   0.434
  223SOL    MW4  924   3.544   0.078   0.452
  224SOL     OW  925   3.905   1.240   0.446
  224SOL    HW2  926   3.973   1.307   0.440
  224SOL    HW3  927   3.833   1.275   0.394
  224SOL    MW4  928   3.904   1.254   0.438
  225SOL     OW  929   0.041   1.167   0.390
  225SOL    HW2  930  -0.021   1.224   0.437
  225SOL    HW3  931  -0.009   1.088   0.370
  225SOL    MW4  932   0.027   1.164   0.393
  226SOL     OW  933   4.183   2.402   0.340
  226SOL    HW2  934   4.152   2.384   0.429
  226SOL    HW3  935   4.201   2.496   0.340
  226SOL    MW4  936   4.181   2.412   0.352
  227SOL     OW  937   4.274   1.721   0.462
  227SOL    HW2  938   4.219   1.741   0.387
  227SOL    HW3  939   4.212   1.712   0.535
  227SOL    MW4  940   4.258   1.722   0.462
  228SOL     OW  941   0.459   2.370   0.224
  228SOL    HW2  942   0.364   2.355   0.225
  228SOL    HW3  943   0.469   2.455   0.181
  228SOL    MW4  944   0.447   2.379   0.219
  229SOL     OW  945   4.424   2.157   0.561
  229SOL    HW2  946   4.462   2.076   0.527
  229SOL    HW3  947   4.455   2.225   0.502
  229SOL    MW4  948   4.433   2.155   0.549
  230SOL     OW  949   4.451   2.618   0.524
  230SOL    HW2  950   4.530   2.670   0.504
  230SOL    HW3  951   4.457   2.603   0.618
  230SOL    MW4  952   4.462   2.623   0.534
  231SOL     OW  953   4.317   3.586   0.458
  231SOL    HW2  954   4.395   3.546   0.420
  231SOL    HW3  955   4.252   3.516   0.459
  231SOL    MW4  956   4.319   3.571   0.453
  232SOL     OW  957   4.182   2.671   0.421
  232SOL    HW2  958   4.127   2.641   0.493
  232SOL    HW3  959   4.272   2.664   0.454
  232SOL    MW4  960   4.187   2.666   0.435
  233SOL     OW  961   0.357   3.860   0.346
  233SOL    HW2  962   0.316   3.942   0.376
  233SOL    HW3  963   0.448   3.884   0.328
  233SOL    MW4  964   0.363   3.874   0.348
  234SOL     OW  965   0.070   3.534   0.324
  234SOL    HW2  966   0.076   3.599   0.255
  234SOL    HW3  967   0.155   3.537   0.368
  234SOL    MW4  968   0.082   3.543   0.321
  235SOL     OW  969   0.027   3.293   0.483
  235SOL    HW2  970   0.078   3.339   0.416
  235SOL    HW3  971  -0.041   3.246   0.435
  235SOL    MW4  972   0.025   3.293   0.468
  236SOL     OW  973   4.018   3.920   0.424
  236SOL    HW2  974   3.975   3.876   0.498
  236SOL    HW3  975   4.104   3.879   0.419
  236SOL    MW4  976   4.023   3.909   0.433
  237SOL     OW  977   3.696   3.251   0.463
  237SOL    HW2  978   3.701   3.335   0.418
  237SOL    HW3  979   3.603   3.233   0.471
  237SOL    MW4  980   3.685   3.260   0.458
  238SOL     OW  981   0.208   4.082   0.414
  238SOL    HW2  982   0.179   4.090   0.505
  238SOL    HW3  983   0.135   4.038   0.370
  238SOL    MW4  984   0.194   4.077   0.420
  239SOL     OW  985   4.150   4.262   0.353
  239SOL    HW2  986   4.092   4.202   0.307
  239SOL    HW3  987   4.095   4.337   0.376
  239SOL    MW4  988   4.135   4.264   0.350
  240SOL     OW  989   4.266   4.260   0.611
  240SOL    HW2  990   4.305   4.345   0.628
  240SOL    HW3  991   4.228   4.267   0.523
  240SOL    MW4  992   4.266   4.272   0.602
  241SOL     OW  993   3.975   4.472   0.398
  241SOL    HW2  994   3.935   4.452   0.483
  241SOL    HW3  995   3.901   4.487   0.339
  241SOL    MW4  996   3.960   4.471   0.401
  242SOL     OW  997   0.216   0.058   0.780
  242SOL    HW2  998   0.241  -0.031   0.755
  242SOL    HW3  999   0.142   0.080   0.723
  242SOL    MW4 1000   0.210   0.049   0.769
  243SOL     OW 1001   4.422   0.147   0.634
  243SOL    HW2 1002   4.368   0.094   0.692
  243SOL    HW3 1003   4.455   0.217   0.691
  243SOL    MW4 1004   4.420   0.149   0.649
  244SOL     OW 1005   4.476   0.361   0.818
  244SOL    HW2 1006   4.502   0.336   0.907
  244SOL    HW3 1007   4.555   0.404   0.782
  244SOL    MW4 1008   4.490   0.364   0.825
  245SOL     OW 1009   0.214   0.493   0.714
  245SOL    HW2 1010   0.297   0.473   0.758
  245SOL    HW3 1011   0.202   0.587   0.728
  245SOL    MW4 1012   0.224   0.503   0.722
  246SOL     OW 1013   0.253   0.793   0.780
  246SOL    HW2 1014   0.249   0.767   0.872
  246SOL    HW3 1015   0.169   0.837   0.765
  246SOL    MW4 1016   0.241   0.796   0.790
  247SOL     OW 1017   0.010   0.887   0.726
  247SOL    HW2 1018  -0.052   0.828   0.768
  247SOL    HW3 1019  -0.013   0.884   0.633
  247SOL    MW4 1020  -0.002   0.879   0.719
  248SOL     OW 1021   0.020   1.136   0.835
  248SOL    HW2 1022   0.005   1.126   0.929
  248SOL    HW3 1023  -0.006   1.051   0.798
  248SOL    MW4 1024   0.015   1.123   0.842
  249SOL     OW 1025   0.263   1.257   0.760
  249SOL    HW2 1026   0.196   1.200   0.796
  249SOL    HW3 1027   0.260   1.241   0.665
  249SOL    MW4 1028   0.254   1.247   0.752
  250SOL     OW 1029   0.201   1.516   0.845
  250SOL    HW2 1030   0.272   1.563   0.802
  250SOL    HW3 1031   0.217   1.424   0.825
  250SOL    MW4 1032   0.213   1.510   0.837
  251SOL     OW 1033   4.487   1.669   0.731
  251SOL    HW2 1034   4.401   1.657   0.772
  251SOL    HW3 1035   4.545   1.609   0.780
  251SOL    MW4 1036   4.483   1.659   0.743
  252SOL     OW 1037   0.013   1.908   0.854
  252SOL    HW2 1038   0.074   1.969   0.813
  252SOL    HW3 1039   0.026   1.825   0.807
  252SOL    MW4 1040   0.022   1.905   0.843
  253SOL     OW 1041   0.173   2.106   0.754
  253SOL    HW2 1042   0.177   2.180   0.815
  253SOL    HW3 1043   0.099   2.126   0.697
  253SOL    MW4 1044   0.163   2.118   0.755
  254SOL     OW 1045   0.172   2.344   0.884
  254SOL    HW2 1046   0.189   2.336   0.978
  254SOL    HW3 1047   0.253   2.379   0.849
  254SOL    MW4 1048   0.185   2.347   0.892
  255SOL     OW 1049   4.416   2.486   0.803
  255SOL    HW2 1050   4.340   2.438   0.836
  255SOL    HW3 1051   4.491   2.438   0.837
  255SOL    MW4 1052   4.415   2.473   0.812
  256SOL     OW 1053   4.462   2.757   0.848
  256SOL    HW2 1054   4.486   2.773   0.939
  256SOL    HW3 1055   4.441   2.664   0.845
  256SOL    MW4 1056   4.462   2.747   0.860
  257SOL     OW 1057   0.226   2.828   0.748
  257SOL    HW2 1058   0.143   2.798   0.786
  257SOL    HW3 1059   0.214   2.815   0.654
  257SOL    MW4 1060   0.213   2.822   0.741
  258SOL     OW 1061   0.261   3.106   0.801
  258SOL    HW2 1062   0.276   3.097   0.895
  258SOL    HW3 1063   0.251   3.016   0.770
  258SOL    MW4 1064   0.262   3.093   0.809
  259SOL     OW 1065   0.013   3.242   0.759
  259SOL    HW2 1066   0.095   3.193   0.763
  259SOL    HW3 1067  -0.002   3.256   0.666
  259SOL    MW4 1068   0.022   3.238   0.747
  260SOL     OW 1069   0.035   3.499   0.857
  260SOL    HW2 1070  -0.036   3.547   0.813
  260SOL    HW3 1071   0.025   3.409   0.826
  260SOL    MW4 1072   0.024   3.493   0.847
  261SOL     OW 1073   0.244   3.632   0.741
  261SOL    HW2 1074   0.180   3.577   0.786
  261SOL    HW3 1075   0.244   3.601   0.651
  261SOL    MW4 1076   0.235   3.621   0.735
  262SOL     OW 1077   0.266   3.901   0.780
  262SOL    HW2 1078   0.249   3.916   0.873
  262SOL    HW3 1079   0.246   3.808   0.767
  262SOL    MW4 1080   0.262   3.891   0.791
  263SOL     OW 1081   0.093   4.081   0.660
  263SOL    HW2 1082   0.011   4.040   0.634
  263SOL    HW3 1083   0.145   4.009   0.696
  263SOL    MW4 1084   0.089   4.066   0.662
  264SOL     OW 1085   0.079   4.330   0.786
  264SOL    HW2 1086   0.052   4.312   0.877
  264SOL    HW3 1087   0.080   4.244   0.744
  264SOL    MW4 1088   0.075   4.316   0.793
  265SOL     OW 1089   0.286   4.465   0.690
  265SOL    HW2 1090   0.208   4.422   0.724
  265SOL    HW3 1091   0.303   4.421   0.606
  265SOL    MW4 1092   0.278   4.453   0.683
  266SOL     OW 1093   0.696   0.023   0.803
  266SOL    HW2 1094   0.691   0.016   0.898
  266SOL    HW3 1095   0.618   0.073   0.779
  266SOL    MW4 1096   0.685   0.029   0.812
  267SOL     OW 1097   0.479   0.166   0.717
  267SOL    HW2 1098   0.398   0.131   0.753
  267SOL    HW3 1099   0.474   0.146   0.624
  267SOL    MW4 1100   0.468   0.159   0.709
  268SOL     OW 1101   0.468   0.431   0.841
  268SOL    HW2 1102   0.539   0.482   0.801
  268SOL    HW3 1103   0.464   0.350   0.790
  268SOL    MW4 1104   0.476   0.427   0.829
  269SOL     OW 1105   0.699   0.554   0.716
  269SOL    HW2 1106   0.771   0.495   0.740
  269SOL    HW3 1107   0.693   0.546   0.621
  269SOL    MW4 1108   0.708   0.545   0.706
  270SOL     OW 1109   0.713   0.807   0.837
  270SOL    HW2 1110   0.633   0.848   0.805
  270SOL    HW3 1111   0.708   0.716   0.808
  270SOL    MW4 1112   0.702   0.801   0.829
  271SOL     OW 1113   0.494   0.943   0.754
  271SOL    HW2 1114   0.483   1.030   0.793
  271SOL    HW3 1115   0.408   0.901   0.762
  271SOL    MW4 1116   0.481   0.949   0.760
  272SOL     OW 1117   0.506   1.195   0.869
  272SOL    HW2 1118   0.566   1.255   0.824
  272SOL    HW3 1119   0.420   1.214   0.831
  272SOL    MW4 1120   0.503   1.205   0.858
  273SOL     OW 1121   0.701   1.324   0.705
  273SOL    HW2 1122   0.704   1.420   0.709
  273SOL    HW3 1123   0.719   1.303   0.613
  273SOL    MW4 1124   0.704   1.334   0.693
  274SOL     OW 1125   0.691   1.594   0.835
  274SOL    HW2 1126   0.701   1.593   0.930
  274SOL    HW3 1127   0.603   1.630   0.820
  274SOL    MW4 1128   0.681   1.599   0.846
  275SOL     OW 1129   0.397   1.657   0.721
  275SOL    HW2 1130   0.381   1.747   0.693
  275SOL    HW3 1131   0.399   1.607   0.640
  275SOL    MW4 1132   0.395   1.662   0.707
  276SOL     OW 1133   0.372   1.949   0.663
  276SOL    HW2 1134   0.299   1.999   0.698
  276SOL    HW3 1135   0.375   1.971   0.570
  276SOL    MW4 1136   0.363   1.958   0.655
  277SOL     OW 1137   0.582   1.996   0.835
  277SOL    HW2 1138   0.557   1.965   0.922
  277SOL    HW3 1139   0.512   1.963   0.778
  277SOL    MW4 1140   0.569   1.987   0.839
  278SOL     OW 1141   0.608   2.273   0.929
  278SOL    HW2 1142   0.617   2.273   1.025
  278SOL    HW3 1143   0.603   2.180   0.906
  278SOL    MW4 1144   0.608   2.260   0.939
  279SOL     OW 1145   0.432   2.465   0.807
  279SOL    HW2 1146   0.462   2.401   0.872
  279SOL    HW3 1147   0.489   2.450   0.732
  279SOL    MW4 1148   0.444   2.455   0.806
  280SOL     OW 1149   0.447   2.737   0.871
  280SOL    HW2 1150   0.454   2.645   0.845
  280SOL    HW3 1151   0.367   2.768   0.828
  280SOL    MW4 1152   0.437   2.729   0.862
  281SOL     OW 1153   0.656   2.860   0.750
  281SOL    HW2 1154   0.735   2.808   0.770
  281SOL    HW3 1155   0.585   2.812   0.792
  281SOL    MW4 1156   0.657   2.846   0.758
  282SOL     OW 1157   0.709   3.120   0.806
  282SOL    HW2 1158   0.635   3.167   0.769
  282SOL    HW3 1159   0.690   3.028   0.788
  282SOL    MW4 1160   0.697   3.114   0.799
  283SOL     OW 1161   0.478   3.232   0.696
  283SOL    HW2 1162   0.481   3.314   0.745
  283SOL    HW3 1163   0.409   3.181   0.739
  283SOL    MW4 1164   0.469   3.236   0.708
  284SOL     OW 1165   0.496   3.484   0.826
  284SOL    HW2 1166   0.503   3.474   0.920
  284SOL    HW3 1167   0.417   3.537   0.813
  284SOL    MW4 1168   0.487   3.490   0.836
  285SOL     OW 1169   0.710   3.599   0.711
  285SOL    HW2 1170   0.635   3.552   0.747
  285SOL    HW3 1171   0.694   3.691   0.735
  285SOL    MW4 1172   0.698   3.605   0.719
  286SOL     OW 1173   0.698   3.859   0.811
  286SOL    HW2 1174   0.777   3.911   0.796
  286SOL    HW3 1175   0.627   3.913   0.775
  286SOL    MW4 1176   0.699   3.873   0.804
  287SOL     OW 1177   0.514   4.032   0.682
  287SOL    HW2 1178   0.498   4.119   0.719
  287SOL    HW3 1179   0.431   3.986   0.690
  287SOL    MW4 1180   0.501   4.038   0.688
  288SOL     OW 1181   0.495   4.288   0.779
  288SOL    HW2 1182   0.486   4.282   0.874
  288SOL    HW3 1183   0.428   4.351   0.753
  288SOL    MW4 1184   0.485   4.296   0.788
  289SOL     OW 1185   0.702   4.451   0.656
  289SOL    HW2 1186   0.642   4.398   0.710
  289SOL    HW3 1187   0.717   4.530   0.708
  289SOL    MW4 1188   0.696   4.454   0.670
  290SOL     OW 1189   1.106   4.620   0.817
  290SOL    HW2 1190   1.193   4.659   0.807
  290SOL    HW3 1191   1.048   4.676   0.764
  290SOL    MW4 1192   1.110   4.632   0.809
  291SOL     OW 1193   0.937   0.132   0.717
  291SOL    HW2 1194   0.933   0.226   0.732
  291SOL    HW3 1195   0.850   0.100   0.743
  291SOL    MW4 1196   0.925   0.140   0.722
  292SOL     OW 1197   0.900   0.390   0.809
  292SOL    HW2 1198   0.900   0.390   0.905
  292SOL    HW3 1199   0.972   0.448   0.785
  292SOL    MW4 1200   0.910   0.398   0.819
  293SOL     OW 1201   1.155   0.497   0.771
  293SOL    HW2 1202   1.227   0.439   0.797
  293SOL    HW3 1203   1.167   0.511   0.677
  293SOL    MW4 1204   1.166   0.491   0.762
  294SOL     OW 1205   1.136   0.772   0.809
  294SOL    HW2 1206   1.134   0.782   0.904
  294SOL    HW3 1207   1.157   0.679   0.795
  294SOL    MW4 1208   1.139   0.761   0.819
  295SOL     OW 1209   0.921   0.941   0.718
  295SOL    HW2 1210   0.996   0.886   0.742
  295SOL    HW3 1211   0.844   0.889   0.742
  295SOL    MW4 1212   0.921   0.927   0.724
  296SOL     OW 1213   0.884   1.173   0.869
  296SOL    HW2 1214   0.881   1.081   0.842
  296SOL    HW3 1215   0.824   1.217   0.809
  296SOL    MW4 1216   0.876   1.166   0.857
  297SOL     OW 1217   1.089   1.320   0.764
  297SOL    HW2 1218   1.033   1.258   0.810
  297SOL    HW3 1219   1.074   1.301   0.671
  297SOL    MW4 1220   1.080   1.309   0.758
  298SOL     OW 1221   1.093   1.565   0.880
  298SOL    HW2 1222   1.014   1.604   0.845
  298SOL    HW3 1223   1.098   1.479   0.839
  298SOL    MW4 1224   1.083   1.559   0.870
  299SOL     OW 1225   0.894   1.705   0.711
  299SOL    HW2 1226   0.884   1.797   0.736
  299SOL    HW3 1227   0.820   1.660   0.752
  299SOL    MW4 1228   0.883   1.711   0.720
  300SOL     OW 1229   0.854   1.954   0.829
  300SOL    HW2 1230   0.883   1.951   0.920
  300SOL    HW3 1231   0.760   1.973   0.835
  300SOL    MW4 1232   0.845   1.956   0.842
  301SOL     OW 1233   1.110   2.062   0.775
  301SOL    HW2 1234   1.104   2.155   0.796
  301SOL    HW3 1235   1.022   2.028   0.788
  301SOL    MW4 1236   1.098   2.070   0.779
  302SOL     OW 1237   1.079   2.326   0.827
  302SOL    HW2 1238   1.090   2.331   0.922
  302SOL    HW3 1239   1.132   2.397   0.793
  302SOL    MW4 1240   1.087   2.336   0.835
  303SOL     OW 1241   0.821   2.425   0.801
  303SOL    HW2 1242   0.901   2.375   0.815
  303SOL    HW3 1243   0.752   2.367   0.835
  303SOL    MW4 1244   0.822   2.411   0.808
  304SOL     OW 1245   0.866   2.701   0.885
  304SOL    HW2 1246   0.876   2.708   0.980
  304SOL    HW3 1247   0.859   2.607   0.868
  304SOL    MW4 1248   0.867   2.690   0.896
  305SOL     OW 1249   1.103   2.810   0.765
  305SOL    HW2 1250   1.017   2.792   0.803
  305SOL    HW3 1251   1.091   2.796   0.671
  305SOL    MW4 1252   1.090   2.806   0.758
  306SOL     OW 1253   1.158   3.093   0.790
  306SOL    HW2 1254   1.087   3.142   0.748
  306SOL    HW3 1255   1.125   3.003   0.795
  306SOL    MW4 1256   1.144   3.087   0.786
  307SOL     OW 1257   0.915   3.245   0.674
  307SOL    HW2 1258   0.934   3.327   0.719
  307SOL    HW3 1259   0.845   3.205   0.727
  307SOL    MW4 1260   0.908   3.250   0.687
  308SOL     OW 1261   0.931   3.485   0.826
  308SOL    HW2 1262   1.008   3.542   0.822
  308SOL    HW3 1263   0.860   3.539   0.790
  308SOL    MW4 1264   0.932   3.500   0.820
  309SOL     OW 1265   1.149   3.655   0.770
  309SOL    HW2 1266   1.233   3.613   0.793
  309SOL    HW3 1267   1.134   3.630   0.679
  309SOL    MW4 1268   1.158   3.646   0.761
  310SOL     OW 1269   1.180   3.917   0.844
  310SOL    HW2 1270   1.182   3.908   0.939
  310SOL    HW3 1271   1.175   3.827   0.811
  310SOL    MW4 1272   1.180   3.904   0.852
  311SOL     OW 1273   0.944   3.978   0.760
  311SOL    HW2 1274   0.925   4.070   0.778
  311SOL    HW3 1275   1.035   3.966   0.785
  311SOL    MW4 1276   0.953   3.988   0.765
  312SOL     OW 1277   0.876   4.246   0.793
  312SOL    HW2 1278   0.964   4.285   0.786
  312SOL    HW3 1279   0.822   4.298   0.733
  312SOL    MW4 1280   0.881   4.258   0.784
  313SOL     OW 1281   1.132   4.356   0.748
  313SOL    HW2 1282   1.219   4.338   0.783
  313SOL    HW3 1283   1.118   4.449   0.764
  313SOL    MW4 1284   1.141   4.366   0.755
  314SOL     OW 1285   1.589   0.010   0.843
  314SOL    HW2 1286   1.584   0.002   0.939
  314SOL    HW3 1287   1.499   0.019   0.815
  314SOL    MW4 1288   1.577   0.010   0.852
  315SOL     OW 1289   1.328   0.100   0.763
  315SOL    HW2 1290   1.344   0.186   0.800
  315SOL    HW3 1291   1.333   0.113   0.668
  315SOL    MW4 1292   1.330   0.113   0.755
  316SOL     OW 1293   1.396   0.346   0.853
  316SOL    HW2 1294   1.406   0.343   0.949
  316SOL    HW3 1295   1.460   0.412   0.825
  316SOL    MW4 1296   1.406   0.354   0.862
  317SOL     OW 1297   1.560   0.547   0.771
  317SOL    HW2 1298   1.559   0.636   0.804
  317SOL    HW3 1299   1.652   0.520   0.778
  317SOL    MW4 1300   1.572   0.555   0.776
  318SOL     OW 1301   1.572   0.820   0.827
  318SOL    HW2 1302   1.647   0.858   0.783
  318SOL    HW3 1303   1.496   0.857   0.782
  318SOL    MW4 1304   1.572   0.830   0.815
  319SOL     OW 1305   1.334   0.927   0.703
  319SOL    HW2 1306   1.320   1.011   0.747
  319SOL    HW3 1307   1.263   0.871   0.735
  319SOL    MW4 1308   1.323   0.931   0.713
  320SOL     OW 1309   1.312   1.178   0.856
  320SOL    HW2 1310   1.384   1.210   0.802
  320SOL    HW3 1311   1.234   1.223   0.822
  320SOL    MW4 1312   1.311   1.189   0.845
  321SOL     OW 1313   1.529   1.279   0.690
  321SOL    HW2 1314   1.546   1.373   0.701
  321SOL    HW3 1315   1.542   1.263   0.596
  321SOL    MW4 1316   1.533   1.290   0.679
  322SOL     OW 1317   1.746   1.660   0.896
  322SOL    HW2 1318   1.691   1.633   0.969
  322SOL    HW3 1319   1.824   1.604   0.902
  322SOL    MW4 1320   1.749   1.649   0.906
  323SOL     OW 1321   1.330   1.680   0.758
  323SOL    HW2 1322   1.346   1.759   0.809
  323SOL    HW3 1323   1.258   1.636   0.803
  323SOL    MW4 1324   1.323   1.685   0.770
  324SOL     OW 1325   1.322   1.928   0.887
  324SOL    HW2 1326   1.325   1.948   0.980
  324SOL    HW3 1327   1.248   1.980   0.854
  324SOL    MW4 1328   1.313   1.938   0.895
  325SOL     OW 1329   1.561   2.026   0.753
  325SOL    HW2 1330   1.473   2.007   0.787
  325SOL    HW3 1331   1.548   2.040   0.659
  325SOL    MW4 1332   1.548   2.025   0.745
  326SOL     OW 1333   1.541   2.347   0.795
  326SOL    HW2 1334   1.462   2.389   0.761
  326SOL    HW3 1335   1.543   2.262   0.752
  326SOL    MW4 1336   1.531   2.341   0.785
  327SOL     OW 1337   1.312   2.478   0.732
  327SOL    HW2 1338   1.325   2.567   0.765
  327SOL    HW3 1339   1.323   2.485   0.637
  327SOL    MW4 1340   1.315   2.490   0.724
  328SOL     OW 1341   1.358   2.726   0.861
  328SOL    HW2 1342   1.352   2.734   0.956
  328SOL    HW3 1343   1.272   2.751   0.829
  328SOL    MW4 1344   1.346   2.730   0.869
  329SOL     OW 1345   1.572   2.832   0.718
  329SOL    HW2 1346   1.592   2.914   0.762
  329SOL    HW3 1347   1.506   2.790   0.774
  329SOL    MW4 1348   1.566   2.837   0.731
  330SOL     OW 1349   1.620   3.100   0.828
  330SOL    HW2 1350   1.616   3.091   0.923
  330SOL    HW3 1351   1.537   3.141   0.804
  330SOL    MW4 1352   1.609   3.104   0.838
  331SOL     OW 1353   1.385   3.255   0.784
  331SOL    HW2 1354   1.311   3.195   0.785
  331SOL    HW3 1355   1.376   3.303   0.701
  331SOL    MW4 1356   1.374   3.253   0.773
  332SOL     OW 1357   1.378   3.520   0.885
  332SOL    HW2 1358   1.469   3.550   0.882
  332SOL    HW3 1359   1.382   3.426   0.867
  332SOL    MW4 1360   1.390   3.512   0.882
  333SOL     OW 1361   1.621   3.641   0.786
  333SOL    HW2 1362   1.695   3.584   0.807
  333SOL    HW3 1363   1.601   3.622   0.694
  333SOL    MW4 1364   1.628   3.631   0.776
  334SOL     OW 1365   1.589   3.904   0.870
  334SOL    HW2 1366   1.516   3.945   0.823
  334SOL    HW3 1367   1.588   3.813   0.840
  334SOL    MW4 1368   1.579   3.898   0.859
  335SOL     OW 1369   1.386   4.033   0.708
  335SOL    HW2 1370   1.311   4.002   0.759
  335SOL    HW3 1371   1.358   4.025   0.617
  335SOL    MW4 1372   1.372   4.028   0.703
  336SOL     OW 1373   1.376   4.284   0.853
  336SOL    HW2 1374   1.451   4.326   0.810
  336SOL    HW3 1375   1.374   4.196   0.816
  336SOL    MW4 1376   1.386   4.278   0.842
  337SOL     OW 1377   1.590   4.415   0.758
  337SOL    HW2 1378   1.662   4.363   0.795
  337SOL    HW3 1379   1.596   4.500   0.802
  337SOL    MW4 1380   1.601   4.419   0.769
  338SOL     OW 1381   1.785   0.189   0.802
  338SOL    HW2 1382   1.872   0.149   0.807
  338SOL    HW3 1383   1.725   0.119   0.826
  338SOL    MW4 1384   1.789   0.174   0.806
  339SOL     OW 1385   1.707   0.192   0.538
  339SOL    HW2 1386   1.630   0.136   0.529
  339SOL    HW3 1387   1.726   0.193   0.631
  339SOL    MW4 1388   1.699   0.185   0.549
  340SOL     OW 1389   1.809   0.463   0.851
  340SOL    HW2 1390   1.797   0.369   0.841
  340SOL    HW3 1391   1.891   0.482   0.805
  340SOL    MW4 1392   1.818   0.453   0.844
  341SOL     OW 1393   2.051   0.534   0.740
  341SOL    HW2 1394   2.056   0.532   0.645
  341SOL    HW3 1395   2.128   0.485   0.770
  341SOL    MW4 1396   2.062   0.527   0.732
  342SOL     OW 1397   1.996   0.790   0.823
  342SOL    HW2 1398   2.077   0.827   0.789
  342SOL    HW3 1399   2.000   0.697   0.799
  342SOL    MW4 1400   2.007   0.782   0.815
  343SOL     OW 1401   1.782   0.976   0.732
  343SOL    HW2 1402   1.771   1.039   0.803
  343SOL    HW3 1403   1.854   0.919   0.761
  343SOL    MW4 1404   1.790   0.977   0.745
  344SOL     OW 1405   1.748   1.241   0.844
  344SOL    HW2 1406   1.829   1.264   0.798
  344SOL    HW3 1407   1.679   1.252   0.778
  344SOL    MW4 1408   1.750   1.245   0.829
  345SOL     OW 1409   1.979   1.303   0.719
  345SOL    HW2 1410   2.056   1.258   0.752
  345SOL    HW3 1411   2.010   1.353   0.644
  345SOL    MW4 1412   1.993   1.304   0.714
  346SOL     OW 1413   2.004   1.521   0.883
  346SOL    HW2 1414   2.069   1.576   0.839
  346SOL    HW3 1415   1.993   1.445   0.825
  346SOL    MW4 1416   2.011   1.518   0.869
  347SOL     OW 1417   1.990   1.468   0.508
  347SOL    HW2 1418   1.897   1.487   0.495
  347SOL    HW3 1419   2.031   1.554   0.514
  347SOL    MW4 1420   1.983   1.482   0.507
  348SOL     OW 1421   1.796   1.949   0.877
  348SOL    HW2 1422   1.784   1.855   0.867
  348SOL    HW3 1423   1.712   1.987   0.850
  348SOL    MW4 1424   1.783   1.942   0.872
  349SOL     OW 1425   2.019   2.083   0.759
  349SOL    HW2 1426   1.990   2.174   0.769
  349SOL    HW3 1427   1.951   2.032   0.803
  349SOL    MW4 1428   2.006   2.089   0.766
  350SOL     OW 1429   2.009   2.347   0.813
  350SOL    HW2 1430   1.982   2.342   0.905
  350SOL    HW3 1431   1.935   2.389   0.769
  350SOL    MW4 1432   1.996   2.352   0.819
  351SOL     OW 1433   1.780   2.444   0.706
  351SOL    HW2 1434   1.698   2.414   0.747
  351SOL    HW3 1435   1.794   2.382   0.635
  351SOL    MW4 1436   1.771   2.432   0.702
  352SOL     OW 1437   1.801   2.710   0.806
  352SOL    HW2 1438   1.792   2.618   0.779
  352SOL    HW3 1439   1.717   2.750   0.783
  352SOL    MW4 1440   1.789   2.703   0.799
  353SOL     OW 1441   2.005   2.883   0.744
  353SOL    HW2 1442   2.076   2.827   0.776
  353SOL    HW3 1443   1.927   2.828   0.750
  353SOL    MW4 1444   2.004   2.868   0.749
  354SOL     OW 1445   2.043   3.115   0.866
  354SOL    HW2 1446   1.964   3.162   0.840
  354SOL    HW3 1447   2.032   3.028   0.829
  354SOL    MW4 1448   2.031   3.110   0.858
  355SOL     OW 1449   1.825   3.255   0.760
  355SOL    HW2 1450   1.751   3.200   0.786
  355SOL    HW3 1451   1.811   3.272   0.666
  355SOL    MW4 1452   1.814   3.250   0.751
  356SOL     OW 1453   1.877   3.489   0.895
  356SOL    HW2 1454   1.863   3.474   0.988
  356SOL    HW3 1455   1.848   3.408   0.853
  356SOL    MW4 1456   1.871   3.476   0.902
  357SOL     OW 1457   2.081   3.644   0.779
  357SOL    HW2 1458   2.071   3.730   0.821
  357SOL    HW3 1459   2.010   3.591   0.815
  357SOL    MW4 1460   2.070   3.649   0.789
  358SOL     OW 1461   2.070   3.902   0.867
  358SOL    HW2 1462   2.063   3.892   0.962
  358SOL    HW3 1463   1.993   3.954   0.843
  358SOL    MW4 1464   2.059   3.908   0.876
  359SOL     OW 1465   1.812   4.019   0.779
  359SOL    HW2 1466   1.733   3.969   0.799
  359SOL    HW3 1467   1.826   4.006   0.685
  359SOL    MW4 1468   1.804   4.011   0.769
  360SOL     OW 1469   1.801   4.279   0.857
  360SOL    HW2 1470   1.801   4.278   0.953
  360SOL    HW3 1471   1.810   4.187   0.833
  360SOL    MW4 1472   1.802   4.267   0.867
  361SOL     OW 1473   2.043   4.371   0.728
  361SOL    HW2 1474   1.965   4.339   0.774
  361SOL    HW3 1475   2.036   4.335   0.640
  361SOL    MW4 1476   2.032   4.362   0.723
  362SOL     OW 1477   2.433   4.649   0.809
  362SOL    HW2 1478   2.444   4.633   0.903
  362SOL    HW3 1479   2.517   4.684   0.780
  362SOL    MW4 1480   2.445   4.651   0.818
  363SOL     OW 1481   2.241   0.173   0.718
  363SOL    HW2 1482   2.307   0.115   0.756
  363SOL    HW3 1483   2.159   0.123   0.723
  363SOL    MW4 1484   2.239   0.159   0.723
  364SOL     OW 1485   2.279   0.435   0.849
  364SOL    HW2 1486   2.355   0.491   0.833
  364SOL    HW3 1487   2.291   0.361   0.790
  364SOL    MW4 1488   2.290   0.433   0.839
  365SOL     OW 1489   2.515   0.578   0.796
  365SOL    HW2 1490   2.517   0.570   0.701
  365SOL    HW3 1491   2.548   0.494   0.828
  365SOL    MW4 1492   2.520   0.566   0.788
  366SOL     OW 1493   2.475   0.858   0.649
  366SOL    HW2 1494   2.475   0.908   0.567
  366SOL    HW3 1495   2.502   0.770   0.623
  366SOL    MW4 1496   2.479   0.853   0.635
  367SOL     OW 1497   2.202   0.932   0.701
  367SOL    HW2 1498   2.283   0.881   0.690
  367SOL    HW3 1499   2.181   0.962   0.613
  367SOL    MW4 1500   2.210   0.929   0.688
  368SOL     OW 1501   2.196   1.172   0.854
  368SOL    HW2 1502   2.207   1.156   0.947
  368SOL    HW3 1503   2.224   1.091   0.812
  368SOL    MW4 1504   2.201   1.159   0.861
  369SOL     OW 1505   2.429   1.292   0.773
  369SOL    HW2 1506   2.336   1.270   0.784
  369SOL    HW3 1507   2.442   1.293   0.678
  369SOL    MW4 1508   2.418   1.289   0.762
  370SOL     OW 1509   2.448   1.542   0.872
  370SOL    HW2 1510   2.527   1.580   0.834
  370SOL    HW3 1511   2.448   1.452   0.839
  370SOL    MW4 1512   2.459   1.535   0.862
  371SOL     OW 1513   2.204   1.671   0.775
  371SOL    HW2 1514   2.290   1.630   0.788
  371SOL    HW3 1515   2.197   1.680   0.680
  371SOL    MW4 1516   2.215   1.666   0.764
  372SOL     OW 1517   2.235   1.923   0.880
  372SOL    HW2 1518   2.227   1.833   0.847
  372SOL    HW3 1519   2.164   1.971   0.837
  372SOL    MW4 1520   2.225   1.917   0.870
  373SOL     OW 1521   2.455   2.075   0.790
  373SOL    HW2 1522   2.378   2.026   0.818
  373SOL    HW3 1523   2.442   2.090   0.697
  373SOL    MW4 1524   2.443   2.071   0.782
  374SOL     OW 1525   2.430   2.330   0.870
  374SOL    HW2 1526   2.513   2.361   0.834
  374SOL    HW3 1527   2.433   2.235   0.858
  374SOL    MW4 1528   2.442   2.322   0.864
  375SOL     OW 1529   2.246   2.462   0.732
  375SOL    HW2 1530   2.305   2.415   0.790
  375SOL    HW3 1531   2.158   2.438   0.761
  375SOL    MW4 1532   2.242   2.453   0.743
  376SOL     OW 1533   2.232   2.736   0.827
  376SOL    HW2 1534   2.241   2.728   0.922
  376SOL    HW3 1535   2.235   2.646   0.794
  376SOL    MW4 1536   2.234   2.723   0.835
  377SOL     OW 1537   2.478   2.822   0.706
  377SOL    HW2 1538   2.547   2.776   0.755
  377SOL    HW3 1539   2.397   2.795   0.749
  377SOL    MW4 1540   2.477   2.812   0.718
  378SOL     OW 1541   2.450   3.102   0.795
  378SOL    HW2 1542   2.452   3.081   0.888
  378SOL    HW3 1543   2.462   3.017   0.751
  378SOL    MW4 1544   2.452   3.088   0.801
  379SOL     OW 1545   2.240   3.252   0.750
  379SOL    HW2 1546   2.174   3.204   0.800
  379SOL    HW3 1547   2.322   3.209   0.770
  379SOL    MW4 1548   2.242   3.240   0.759
  380SOL     OW 1549   2.299   3.492   0.875
  380SOL    HW2 1550   2.279   3.411   0.828
  380SOL    HW3 1551   2.228   3.552   0.852
  380SOL    MW4 1552   2.287   3.489   0.866
  381SOL     OW 1553   2.516   3.609   0.762
  381SOL    HW2 1554   2.586   3.552   0.794
  381SOL    HW3 1555   2.436   3.570   0.797
  381SOL    MW4 1556   2.515   3.596   0.770
  382SOL     OW 1557   2.511   3.874   0.815
  382SOL    HW2 1558   2.429   3.902   0.775
  382SOL    HW3 1559   2.518   3.781   0.794
  382SOL    MW4 1560   2.501   3.866   0.807
  383SOL     OW 1561   2.270   3.992   0.688
  383SOL    HW2 1562   2.203   3.955   0.745
  383SOL    HW3 1563   2.247   3.961   0.601
  383SOL    MW4 1564   2.258   3.983   0.684
  384SOL     OW 1565   2.277   4.251   0.814
  384SOL    HW2 1566   2.276   4.174   0.758
  384SOL    HW3 1567   2.196   4.297   0.794
  384SOL    MW4 1568   2.267   4.247   0.804
  385SOL     OW 1569   2.576   4.214   0.871
  385SOL    HW2 1570   2.482   4.228   0.863
  385SOL    HW3 1571   2.594   4.224   0.965
  385SOL    MW4 1572   2.566   4.217   0.883
  386SOL     OW 1573   2.893   4.635   0.760
  386SOL    HW2 1574   2.934   4.613   0.676
  386SOL    HW3 1575   2.815   4.685   0.737
  386SOL    MW4 1576   2.888   4.639   0.746
  387SOL     OW 1577   2.691   4.444   0.653
  387SOL    HW2 1578   2.689   4.495   0.572
  387SOL    HW3 1579   2.744   4.498   0.713
  387SOL    MW4 1580   2.698   4.458   0.650
  388SOL     OW 1581   2.662   0.359   0.858
  388SOL    HW2 1582   2.667   0.370   0.953
  388SOL    HW3 1583   2.729   0.418   0.824
  388SOL    MW4 1584   2.671   0.368   0.866
  389SOL     OW 1585   2.879   0.478   0.746
  389SOL    HW2 1586   2.958   0.473   0.799
  389SOL    HW3 1587   2.907   0.452   0.659
  389SOL    MW4 1588   2.893   0.474   0.742
  390SOL     OW 1589   2.901   0.741   0.838
  390SOL    HW2 1590   2.897   0.721   0.932
  390SOL    HW3 1591   2.875   0.660   0.795
  390SOL    MW4 1592   2.897   0.728   0.845
  391SOL     OW 1593   2.714   0.944   0.749
  391SOL    HW2 1594   2.761   0.874   0.793
  391SOL    HW3 1595   2.637   0.901   0.711
  391SOL    MW4 1596   2.710   0.929   0.750
  392SOL     OW 1597   2.685   1.212   0.832
  392SOL    HW2 1598   2.691   1.121   0.803
  392SOL    HW3 1599   2.594   1.236   0.818
  392SOL    MW4 1600   2.674   1.203   0.827
  393SOL     OW 1601   2.918   1.317   0.734
  393SOL    HW2 1602   2.991   1.263   0.762
  393SOL    HW3 1603   2.843   1.283   0.783
  393SOL    MW4 1604   2.918   1.306   0.744
  394SOL     OW 1605   2.878   1.581   0.824
  394SOL    HW2 1606   2.939   1.647   0.791
  394SOL    HW3 1607   2.911   1.498   0.789
  394SOL    MW4 1608   2.891   1.579   0.815
  395SOL     OW 1609   2.639   1.647   0.698
  395SOL    HW2 1610   2.625   1.740   0.719
  395SOL    HW3 1611   2.718   1.623   0.745
  395SOL    MW4 1612   2.648   1.656   0.707
  396SOL     OW 1613   2.687   1.894   0.834
  396SOL    HW2 1614   2.680   1.894   0.929
  396SOL    HW3 1615   2.629   1.964   0.806
  396SOL    MW4 1616   2.678   1.903   0.843
  397SOL     OW 1617   2.845   2.096   0.698
  397SOL    HW2 1618   2.886   2.155   0.761
  397SOL    HW3 1619   2.811   2.024   0.752
  397SOL    MW4 1620   2.846   2.094   0.714
  398SOL     OW 1621   2.916   2.325   0.870
  398SOL    HW2 1622   2.911   2.339   0.965
  398SOL    HW3 1623   2.840   2.370   0.835
  398SOL    MW4 1624   2.905   2.333   0.878
  399SOL     OW 1625   2.676   2.429   0.771
  399SOL    HW2 1626   2.671   2.438   0.676
  399SOL    HW3 1627   2.659   2.516   0.805
  399SOL    MW4 1628   2.673   2.441   0.763
  400SOL     OW 1629   2.663   2.685   0.851
  400SOL    HW2 1630   2.662   2.689   0.947
  400SOL    HW3 1631   2.742   2.734   0.826
  400SOL    MW4 1632   2.673   2.692   0.860
  401SOL     OW 1633   2.934   2.946   0.487
  401SOL    HW2 1634   2.964   2.857   0.469
  401SOL    HW3 1635   2.840   2.944   0.470
  401SOL    MW4 1636   2.926   2.934   0.483
  402SOL     OW 1637   2.922   3.086   0.856
  402SOL    HW2 1638   2.843   3.126   0.820
  402SOL    HW3 1639   2.913   2.993   0.836
  402SOL    MW4 1640   2.911   3.079   0.849
  403SOL     OW 1641   2.721   3.205   0.710
  403SOL    HW2 1642   2.729   3.294   0.743
  403SOL    HW3 1643   2.632   3.179   0.731
  403SOL    MW4 1644   2.711   3.213   0.717
  404SOL     OW 1645   2.733   3.448   0.825
  404SOL    HW2 1646   2.721   3.451   0.920
  404SOL    HW3 1647   2.813   3.498   0.809
  404SOL    MW4 1648   2.742   3.455   0.835
  405SOL     OW 1649   2.951   3.602   0.788
  405SOL    HW2 1650   2.944   3.693   0.817
  405SOL    HW3 1651   2.955   3.608   0.693
  405SOL    MW4 1652   2.951   3.615   0.779
  406SOL     OW 1653   2.966   3.880   0.816
  406SOL    HW2 1654   2.974   3.898   0.909
  406SOL    HW3 1655   2.879   3.911   0.792
  406SOL    MW4 1656   2.956   3.886   0.825
  407SOL     OW 1657   2.732   3.972   0.686
  407SOL    HW2 1658   2.653   3.939   0.729
  407SOL    HW3 1659   2.735   3.925   0.603
  407SOL    MW4 1660   2.722   3.961   0.681
  408SOL     OW 1661   2.887   4.208   0.858
  408SOL    HW2 1662   2.854   4.227   0.945
  408SOL    HW3 1663   2.968   4.260   0.851
  408SOL    MW4 1664   2.894   4.217   0.869
  409SOL     OW 1665   3.066   4.384   0.436
  409SOL    HW2 1666   3.134   4.409   0.499
  409SOL    HW3 1667   3.005   4.330   0.486
  409SOL    MW4 1668   3.067   4.380   0.451
  410SOL     OW 1669   3.323   0.016   0.816
  410SOL    HW2 1670   3.321   0.000   0.910
  410SOL    HW3 1671   3.243   0.065   0.797
  410SOL    MW4 1672   3.312   0.020   0.826
  411SOL     OW 1673   3.110   0.172   0.761
  411SOL    HW2 1674   3.099   0.253   0.811
  411SOL    HW3 1675   3.037   0.117   0.790
  411SOL    MW4 1676   3.099   0.176   0.771
  412SOL     OW 1677   3.119   0.436   0.863
  412SOL    HW2 1678   3.131   0.450   0.957
  412SOL    HW3 1679   3.198   0.472   0.823
  412SOL    MW4 1680   3.131   0.443   0.870
  413SOL     OW 1681   3.354   0.545   0.734
  413SOL    HW2 1682   3.430   0.487   0.735
  413SOL    HW3 1683   3.340   0.566   0.641
  413SOL    MW4 1684   3.362   0.540   0.722
  414SOL     OW 1685   3.347   0.794   0.841
  414SOL    HW2 1686   3.259   0.821   0.814
  414SOL    HW3 1687   3.357   0.706   0.804
  414SOL    MW4 1688   3.337   0.786   0.833
  415SOL     OW 1689   3.104   0.896   0.737
  415SOL    HW2 1690   3.092   0.986   0.766
  415SOL    HW3 1691   3.038   0.846   0.785
  415SOL    MW4 1692   3.094   0.901   0.747
  416SOL     OW 1693   3.124   1.165   0.833
  416SOL    HW2 1694   3.139   1.121   0.917
  416SOL    HW3 1695   3.211   1.173   0.795
  416SOL    MW4 1696   3.138   1.160   0.839
  417SOL     OW 1697   3.385   1.209   0.692
  417SOL    HW2 1698   3.464   1.190   0.743
  417SOL    HW3 1699   3.364   1.300   0.713
  417SOL    MW4 1700   3.392   1.219   0.702
  418SOL     OW 1701   3.321   1.468   0.791
  418SOL    HW2 1702   3.319   1.469   0.886
  418SOL    HW3 1703   3.403   1.512   0.768
  418SOL    MW4 1704   3.331   1.474   0.800
  419SOL     OW 1705   3.125   1.662   0.687
  419SOL    HW2 1706   3.171   1.584   0.717
  419SOL    HW3 1707   3.114   1.649   0.593
  419SOL    MW4 1708   3.130   1.650   0.678
  420SOL     OW 1709   3.214   1.864   0.868
  420SOL    HW2 1710   3.179   1.880   0.956
  420SOL    HW3 1711   3.182   1.777   0.845
  420SOL    MW4 1712   3.205   1.855   0.876
  421SOL     OW 1713   3.594   2.018   0.846
  421SOL    HW2 1714   3.538   2.094   0.855
  421SOL    HW3 1715   3.541   1.953   0.799
  421SOL    MW4 1716   3.580   2.019   0.841
  422SOL     OW 1717   3.438   2.245   0.858
  422SOL    HW2 1718   3.398   2.256   0.945
  422SOL    HW3 1719   3.515   2.301   0.860
  422SOL    MW4 1720   3.443   2.253   0.870
  423SOL     OW 1721   3.059   2.498   0.698
  423SOL    HW2 1722   3.122   2.427   0.690
  423SOL    HW3 1723   2.994   2.466   0.761
  423SOL    MW4 1724   3.059   2.485   0.705
  424SOL     OW 1725   3.141   2.728   0.823
  424SOL    HW2 1726   3.130   2.644   0.778
  424SOL    HW3 1727   3.231   2.754   0.803
  424SOL    MW4 1728   3.152   2.720   0.815
  425SOL     OW 1729   3.398   2.824   0.738
  425SOL    HW2 1730   3.391   2.818   0.642
  425SOL    HW3 1731   3.477   2.774   0.759
  425SOL    MW4 1732   3.408   2.817   0.728
  426SOL     OW 1733   3.402   3.085   0.856
  426SOL    HW2 1734   3.396   3.064   0.949
  426SOL    HW3 1735   3.391   3.001   0.811
  426SOL    MW4 1736   3.400   3.071   0.862
  427SOL     OW 1737   3.155   3.155   0.755
  427SOL    HW2 1738   3.229   3.131   0.811
  427SOL    HW3 1739   3.078   3.127   0.804
  427SOL    MW4 1740   3.155   3.148   0.769
  428SOL     OW 1741   3.181   3.438   0.838
  428SOL    HW2 1742   3.152   3.351   0.811
  428SOL    HW3 1743   3.108   3.495   0.818
  428SOL    MW4 1744   3.168   3.434   0.832
  429SOL     OW 1745   3.435   4.289   0.557
  429SOL    HW2 1746   3.414   4.220   0.494
  429SOL    HW3 1747   3.512   4.333   0.521
  429SOL    MW4 1748   3.442   4.286   0.544
  430SOL     OW 1749   3.423   3.917   0.818
  430SOL    HW2 1750   3.442   4.011   0.820
  430SOL    HW3 1751   3.381   3.900   0.903
  430SOL    MW4 1752   3.420   3.927   0.830
  431SOL     OW 1753   3.105   4.063   0.674
  431SOL    HW2 1754   3.163   4.007   0.622
  431SOL    HW3 1755   3.053   4.002   0.726
  431SOL    MW4 1756   3.106   4.048   0.674
  432SOL     OW 1757   3.151   4.297   0.842
  432SOL    HW2 1758   3.178   4.365   0.780
  432SOL    HW3 1759   3.163   4.215   0.794
  432SOL    MW4 1760   3.156   4.295   0.827
  433SOL     OW 1761   3.248   4.483   0.658
  433SOL    HW2 1762   3.294   4.550   0.709
  433SOL    HW3 1763   3.318   4.425   0.628
  433SOL    MW4 1764   3.264   4.484   0.661
  434SOL     OW 1765   3.796   4.660   0.806
  434SOL    HW2 1766   3.867   4.714   0.772
  434SOL    HW3 1767   3.716   4.709   0.784
  434SOL    MW4 1768   3.794   4.674   0.799
  435SOL     OW 1769   3.565   0.124   0.739
  435SOL    HW2 1770   3.484   0.091   0.779
  435SOL    HW3 1771   3.549   0.120   0.645
  435SOL    MW4 1772   3.552   0.119   0.732
  436SOL     OW 1773   3.550   0.384   0.829
  436SOL    HW2 1774   3.545   0.390   0.925
  436SOL    HW3 1775   3.559   0.290   0.812
  436SOL    MW4 1776   3.551   0.372   0.840
  437SOL     OW 1777   3.803   0.505   0.743
  437SOL    HW2 1778   3.809   0.595   0.775
  437SOL    HW3 1779   3.722   0.471   0.782
  437SOL    MW4 1780   3.793   0.512   0.752
  438SOL     OW 1781   3.830   0.756   0.853
  438SOL    HW2 1782   3.839   0.754   0.948
  438SOL    HW3 1783   3.913   0.790   0.821
  438SOL    MW4 1784   3.842   0.760   0.861
  439SOL     OW 1785   3.590   0.853   0.729
  439SOL    HW2 1786   3.657   0.825   0.791
  439SOL    HW3 1787   3.507   0.835   0.773
  439SOL    MW4 1788   3.588   0.847   0.743
  440SOL     OW 1789   3.611   1.116   0.797
  440SOL    HW2 1790   3.612   1.108   0.893
  440SOL    HW3 1791   3.602   1.025   0.766
  440SOL    MW4 1792   3.610   1.103   0.806
  441SOL     OW 1793   3.827   1.271   0.720
  441SOL    HW2 1794   3.748   1.221   0.742
  441SOL    HW3 1795   3.844   1.250   0.629
  441SOL    MW4 1796   3.819   1.262   0.711
  442SOL     OW 1797   3.810   1.543   0.780
  442SOL    HW2 1798   3.883   1.581   0.732
  442SOL    HW3 1799   3.819   1.449   0.767
  442SOL    MW4 1800   3.821   1.536   0.772
  443SOL     OW 1801   3.542   1.594   0.698
  443SOL    HW2 1802   3.509   1.684   0.701
  443SOL    HW3 1803   3.628   1.599   0.742
  443SOL    MW4 1804   3.549   1.607   0.704
  444SOL     OW 1805   3.766   1.991   0.639
  444SOL    HW2 1806   3.850   1.958   0.669
  444SOL    HW3 1807   3.712   1.994   0.718
  444SOL    MW4 1808   3.770   1.987   0.653
  445SOL     OW 1809   3.807   2.266   0.618
  445SOL    HW2 1810   3.748   2.320   0.670
  445SOL    HW3 1811   3.806   2.180   0.662
  445SOL    MW4 1812   3.799   2.261   0.631
  446SOL     OW 1813   3.823   1.778   0.316
  446SOL    HW2 1814   3.787   1.866   0.325
  446SOL    HW3 1815   3.752   1.720   0.342
  446SOL    MW4 1816   3.809   1.782   0.320
  447SOL     OW 1817   3.679   2.404   0.828
  447SOL    HW2 1818   3.669   2.499   0.829
  447SOL    HW3 1819   3.743   2.386   0.898
  447SOL    MW4 1820   3.686   2.414   0.838
  448SOL     OW 1821   3.619   2.685   0.809
  448SOL    HW2 1822   3.596   2.673   0.901
  448SOL    HW3 1823   3.683   2.757   0.810
  448SOL    MW4 1824   3.624   2.693   0.821
  449SOL     OW 1825   3.773   2.920   0.742
  449SOL    HW2 1826   3.754   2.993   0.800
  449SOL    HW3 1827   3.793   2.960   0.658
  449SOL    MW4 1828   3.773   2.935   0.739
  450SOL     OW 1829   3.683   3.126   0.922
  450SOL    HW2 1830   3.708   3.200   0.865
  450SOL    HW3 1831   3.598   3.098   0.889
  450SOL    MW4 1832   3.675   3.132   0.910
  451SOL     OW 1833   3.417   3.401   0.689
  451SOL    HW2 1834   3.429   3.307   0.700
  451SOL    HW3 1835   3.336   3.420   0.738
  451SOL    MW4 1836   3.408   3.391   0.697
  452SOL     OW 1837   3.613   3.501   0.843
  452SOL    HW2 1838   3.693   3.457   0.814
  452SOL    HW3 1839   3.543   3.458   0.795
  452SOL    MW4 1840   3.614   3.490   0.833
  453SOL     OW 1841   3.905   3.755   0.638
  453SOL    HW2 1842   3.823   3.763   0.688
  453SOL    HW3 1843   3.951   3.683   0.680
  453SOL    MW4 1844   3.900   3.747   0.650
  454SOL     OW 1845   3.687   3.774   0.817
  454SOL    HW2 1846   3.615   3.836   0.828
  454SOL    HW3 1847   3.644   3.688   0.811
  454SOL    MW4 1848   3.672   3.771   0.818
  455SOL     OW 1849   2.634   4.163   0.289
  455SOL    HW2 1850   2.589   4.233   0.242
  455SOL    HW3 1851   2.631   4.189   0.381
  455SOL    MW4 1852   2.627   4.175   0.295
  456SOL     OW 1853   3.531   4.174   0.815
  456SOL    HW2 1854   3.613   4.143   0.776
  456SOL    HW3 1855   3.488   4.222   0.744
  456SOL    MW4 1856   3.536   4.176   0.800
  457SOL     OW 1857   3.864   4.442   0.659
  457SOL    HW2 1858   3.902   4.374   0.714
  457SOL    HW3 1859   3.859   4.519   0.716
  457SOL    MW4 1860   3.868   4.443   0.674
  458SOL     OW 1861   4.251   4.634   0.811
  458SOL    HW2 1862   4.240   4.627   0.906
  458SOL    HW3 1863   4.171   4.677   0.780
  458SOL    MW4 1864   4.239   4.639   0.819
  459SOL     OW 1865   4.040   0.118   0.696
  459SOL    HW2 1866   4.046   0.210   0.722
  459SOL    HW3 1867   4.049   0.119   0.601
  459SOL    MW4 1868   4.042   0.131   0.687
  460SOL     OW 1869   4.048   0.365   0.808
  460SOL    HW2 1870   4.116   0.430   0.789
  460SOL    HW3 1871   3.968   0.404   0.774
  460SOL    MW4 1872   4.047   0.379   0.801
  461SOL     OW 1873   4.261   0.484   0.695
  461SOL    HW2 1874   4.340   0.446   0.734
  461SOL    HW3 1875   4.272   0.470   0.601
  461SOL    MW4 1876   4.273   0.477   0.688
  462SOL     OW 1877   4.290   0.726   0.816
  462SOL    HW2 1878   4.221   0.783   0.783
  462SOL    HW3 1879   4.268   0.639   0.784
  462SOL    MW4 1880   4.278   0.722   0.808
  463SOL     OW 1881   4.065   0.888   0.720
  463SOL    HW2 1882   4.063   0.980   0.744
  463SOL    HW3 1883   4.087   0.887   0.627
  463SOL    MW4 1884   4.068   0.900   0.711
  464SOL     OW 1885   4.070   1.147   0.805
  464SOL    HW2 1886   4.065   1.159   0.900
  464SOL    HW3 1887   3.994   1.194   0.771
  464SOL    MW4 1888   4.059   1.155   0.813
  465SOL     OW 1889   4.300   1.324   0.775
  465SOL    HW2 1890   4.239   1.250   0.770
  465SOL    HW3 1891   4.380   1.286   0.810
  465SOL    MW4 1892   4.302   1.309   0.779
  466SOL     OW 1893   4.239   1.582   0.870
  466SOL    HW2 1894   4.235   1.569   0.965
  466SOL    HW3 1895   4.251   1.494   0.834
  466SOL    MW4 1896   4.240   1.569   0.878
  467SOL     OW 1897   4.070   1.653   0.659
  467SOL    HW2 1898   4.115   1.627   0.739
  467SOL    HW3 1899   4.065   1.573   0.607
  467SOL    MW4 1900   4.075   1.639   0.663
  468SOL     OW 1901   4.021   1.924   0.729
  468SOL    HW2 1902   4.034   1.834   0.698
  468SOL    HW3 1903   4.109   1.962   0.729
  468SOL    MW4 1904   4.034   1.917   0.725
  469SOL     OW 1905   4.284   2.028   0.752
  469SOL    HW2 1906   4.357   1.977   0.787
  469SOL    HW3 1907   4.321   2.075   0.677
  469SOL    MW4 1908   4.299   2.027   0.747
  470SOL     OW 1909   4.206   2.289   0.832
  470SOL    HW2 1910   4.154   2.305   0.753
  470SOL    HW3 1911   4.248   2.205   0.817
  470SOL    MW4 1912   4.205   2.280   0.819
  471SOL     OW 1913   3.969   2.651   0.588
  471SOL    HW2 1914   3.978   2.718   0.656
  471SOL    HW3 1915   3.913   2.691   0.522
  471SOL    MW4 1916   3.963   2.665   0.588
  472SOL     OW 1917   4.015   2.802   0.854
  472SOL    HW2 1918   4.099   2.846   0.837
  472SOL    HW3 1919   3.949   2.866   0.829
  472SOL    MW4 1920   4.018   2.816   0.848
  473SOL     OW 1921   4.220   2.907   0.716
  473SOL    HW2 1922   4.311   2.878   0.720
  473SOL    HW3 1923   4.208   2.937   0.626
  473SOL    MW4 1924   4.230   2.907   0.705
  474SOL     OW 1925   4.261   3.149   0.868
  474SOL    HW2 1926   4.248   3.064   0.827
  474SOL    HW3 1927   4.352   3.173   0.847
  474SOL    MW4 1928   4.271   3.141   0.860
  475SOL     OW 1929   4.054   3.283   0.706
  475SOL    HW2 1930   4.049   3.374   0.736
  475SOL    HW3 1931   4.112   3.240   0.769
  475SOL    MW4 1932   4.061   3.289   0.719
  476SOL     OW 1933   4.035   3.539   0.787
  476SOL    HW2 1934   4.036   3.525   0.882
  476SOL    HW3 1935   4.123   3.569   0.766
  476SOL    MW4 1936   4.046   3.541   0.797
  477SOL     OW 1937   4.292   3.617   0.750
  477SOL    HW2 1938   4.270   3.706   0.778
  477SOL    HW3 1939   4.317   3.627   0.658
  477SOL    MW4 1940   4.292   3.630   0.741
  478SOL     OW 1941   4.238   3.882   0.846
  478SOL    HW2 1942   4.253   3.874   0.940
  478SOL    HW3 1943   4.146   3.906   0.838
  478SOL    MW4 1944   4.228   3.884   0.857
  479SOL     OW 1945   3.968   3.967   0.820
  479SOL    HW2 1946   3.930   3.926   0.898
  479SOL    HW3 1947   3.948   3.905   0.749
  479SOL    MW4 1948   3.960   3.953   0.821
  480SOL     OW 1949   4.025   4.249   0.790
  480SOL    HW2 1950   4.114   4.260   0.758
  480SOL    HW3 1951   4.013   4.155   0.797
  480SOL    MW4 1952   4.035   4.238   0.787
  481SOL     OW 1953   4.406   4.487   0.644
  481SOL    HW2 1954   4.365   4.546   0.708
  481SOL    HW3 1955   4.465   4.433   0.697
  481SOL    MW4 1956   4.409   4.488   0.660
  482SOL     OW 1957   0.215   4.653   1.066
  482SOL    HW2 1958   0.282   4.721   1.078
  482SOL    HW3 1959   0.190   4.660   0.974
  482SOL    MW4 1960   0.221   4.662   1.056
  483SOL     OW 1961   4.486   0.060   1.211
  483SOL    HW2 1962   4.408   0.026   1.167
  483SOL    HW3 1963   4.559   0.029   1.158
  483SOL    MW4 1964   4.485   0.052   1.198
  484SOL     OW 1965   0.031   0.319   1.093
  484SOL    HW2 1966  -0.046   0.370   1.119
  484SOL    HW3 1967   0.023   0.237   1.141
  484SOL    MW4 1968   0.020   0.315   1.103
  485SOL     OW 1969   0.231   0.479   1.218
  485SOL    HW2 1970   0.228   0.558   1.163
  485SOL    HW3 1971   0.175   0.416   1.172
  485SOL    MW4 1972   0.223   0.481   1.205
  486SOL     OW 1973   0.238   0.757   1.067
  486SOL    HW2 1974   0.310   0.804   1.108
  486SOL    HW3 1975   0.159   0.790   1.111
  486SOL    MW4 1976   0.237   0.767   1.078
  487SOL     OW 1977   0.005   0.871   1.184
  487SOL    HW2 1978  -0.001   0.858   1.279
  487SOL    HW3 1979  -0.064   0.814   1.148
  487SOL    MW4 1980  -0.005   0.862   1.192
  488SOL     OW 1981   0.018   1.137   1.105
  488SOL    HW2 1982  -0.061   1.184   1.129
  488SOL    HW3 1983   0.003   1.047   1.134
  488SOL    MW4 1984   0.006   1.131   1.112
  489SOL     OW 1985   0.209   1.301   1.195
  489SOL    HW2 1986   0.295   1.265   1.174
  489SOL    HW3 1987   0.147   1.234   1.165
  489SOL    MW4 1988   0.212   1.287   1.188
  490SOL     OW 1989   0.244   1.569   1.118
  490SOL    HW2 1990   0.231   1.486   1.164
  490SOL    HW3 1991   0.239   1.546   1.025
  490SOL    MW4 1992   0.242   1.555   1.112
  491SOL     OW 1993   4.450   1.679   1.191
  491SOL    HW2 1994   4.459   1.772   1.172
  491SOL    HW3 1995   4.529   1.638   1.156
  491SOL    MW4 1996   4.461   1.686   1.184
  492SOL     OW 1997   0.023   1.940   1.153
  492SOL    HW2 1998  -0.062   1.972   1.184
  492SOL    HW3 1999   0.009   1.923   1.059
  492SOL    MW4 2000   0.010   1.942   1.144
  493SOL     OW 2001   0.265   2.051   1.200
  493SOL    HW2 2002   0.244   2.142   1.182
  493SOL    HW3 2003   0.181   2.006   1.200
  493SOL    MW4 2004   0.251   2.057   1.198
  494SOL     OW 2005   0.194   2.337   1.178
  494SOL    HW2 2006   0.270   2.385   1.211
  494SOL    HW3 2007   0.120   2.394   1.198
  494SOL    MW4 2008   0.195   2.351   1.185
  495SOL     OW 2009   4.464   2.485   1.229
  495SOL    HW2 2010   4.469   2.486   1.325
  495SOL    HW3 2011   4.395   2.421   1.210
  495SOL    MW4 2012   4.455   2.477   1.239
  496SOL     OW 2013   0.001   2.763   1.129
  496SOL    HW2 2014  -0.077   2.812   1.159
  496SOL    HW3 2015  -0.002   2.681   1.178
  496SOL    MW4 2016  -0.010   2.759   1.139
  497SOL     OW 2017   0.237   2.868   1.197
  497SOL    HW2 2018   0.226   2.866   1.292
  497SOL    HW3 2019   0.151   2.841   1.162
  497SOL    MW4 2020   0.224   2.864   1.205
  498SOL     OW 2021   0.263   3.119   1.082
  498SOL    HW2 2022   0.330   3.167   1.131
  498SOL    HW3 2023   0.268   3.030   1.118
  498SOL    MW4 2024   0.273   3.114   1.093
  499SOL     OW 2025   0.035   3.263   1.203
  499SOL    HW2 2026  -0.052   3.225   1.187
  499SOL    HW3 2027   0.096   3.200   1.165
  499SOL    MW4 2028   0.032   3.250   1.196
  500SOL     OW 2029   0.011   3.528   1.131
  500SOL    HW2 2030   0.027   3.441   1.169
  500SOL    HW3 2031  -0.002   3.510   1.038
  500SOL    MW4 2032   0.011   3.514   1.124
  501SOL     OW 2033   0.247   3.662   1.203
  501SOL    HW2 2034   0.257   3.654   1.298
  501SOL    HW3 2035   0.158   3.632   1.185
  501SOL    MW4 2036   0.237   3.657   1.213
  502SOL     OW 2037   0.236   3.897   1.060
  502SOL    HW2 2038   0.163   3.944   1.101
  502SOL    HW3 2039   0.232   3.809   1.099
  502SOL    MW4 2040   0.226   3.891   1.071
  503SOL     OW 2041   0.026   4.035   1.183
  503SOL    HW2 2042   0.026   4.037   1.279
  503SOL    HW3 2043  -0.045   3.975   1.161
  503SOL    MW4 2044   0.017   4.027   1.193
  504SOL     OW 2045   0.006   4.270   1.047
  504SOL    HW2 2046   0.079   4.310   1.092
  504SOL    HW3 2047   0.003   4.180   1.081
  504SOL    MW4 2048   0.015   4.263   1.058
  505SOL     OW 2049   0.233   4.398   1.166
  505SOL    HW2 2050   0.230   4.411   1.261
  505SOL    HW3 2051   0.231   4.486   1.129
  505SOL    MW4 2052   0.232   4.411   1.174
  506SOL     OW 2053   0.693   0.007   1.076
  506SOL    HW2 2054   0.765   0.051   1.123
  506SOL    HW3 2055   0.685  -0.077   1.121
  506SOL    MW4 2056   0.702   0.002   1.088
  507SOL     OW 2057   0.435   0.146   1.131
  507SOL    HW2 2058   0.447   0.241   1.125
  507SOL    HW3 2059   0.519   0.109   1.104
  507SOL    MW4 2060   0.448   0.154   1.127
  508SOL     OW 2061   0.489   0.419   1.125
  508SOL    HW2 2062   0.408   0.461   1.153
  508SOL    HW3 2063   0.490   0.429   1.030
  508SOL    MW4 2064   0.478   0.426   1.117
  509SOL     OW 2065   0.708   0.536   1.246
  509SOL    HW2 2066   0.711   0.626   1.214
  509SOL    HW3 2067   0.632   0.497   1.203
  509SOL    MW4 2068   0.699   0.543   1.236
  510SOL     OW 2069   0.695   0.786   1.130
  510SOL    HW2 2070   0.618   0.840   1.151
  510SOL    HW3 2071   0.700   0.788   1.035
  510SOL    MW4 2072   0.685   0.793   1.121
  511SOL     OW 2073   0.448   0.917   1.186
  511SOL    HW2 2074   0.441   0.896   1.280
  511SOL    HW3 2075   0.441   1.013   1.183
  511SOL    MW4 2076   0.446   0.927   1.198
  512SOL     OW 2077   0.451   1.186   1.150
  512SOL    HW2 2078   0.517   1.244   1.185
  512SOL    HW3 2079   0.462   1.192   1.055
  512SOL    MW4 2080   0.461   1.194   1.142
  513SOL     OW 2081   0.657   1.330   1.250
  513SOL    HW2 2082   0.721   1.265   1.222
  513SOL    HW3 2083   0.689   1.412   1.214
  513SOL    MW4 2084   0.670   1.332   1.241
  514SOL     OW 2085   0.699   1.563   1.109
  514SOL    HW2 2086   0.772   1.620   1.133
  514SOL    HW3 2087   0.622   1.605   1.148
  514SOL    MW4 2088   0.699   1.576   1.117
  515SOL     OW 2089   0.476   1.689   1.208
  515SOL    HW2 2090   0.450   1.687   1.301
  515SOL    HW3 2091   0.401   1.653   1.162
  515SOL    MW4 2092   0.463   1.684   1.214
  516SOL     OW 2093   0.501   1.937   1.100
  516SOL    HW2 2094   0.487   1.844   1.117
  516SOL    HW3 2095   0.420   1.979   1.131
  516SOL    MW4 2096   0.488   1.930   1.106
  517SOL     OW 2097   0.725   2.053   1.278
  517SOL    HW2 2098   0.689   2.047   1.367
  517SOL    HW3 2099   0.661   2.008   1.224
  517SOL    MW4 2100   0.712   2.046   1.283
  518SOL     OW 2101   0.650   2.317   1.200
  518SOL    HW2 2102   0.586   2.363   1.255
  518SOL    HW3 2103   0.679   2.244   1.254
  518SOL    MW4 2104   0.645   2.313   1.214
  519SOL     OW 2105   0.417   2.484   1.265
  519SOL    HW2 2106   0.449   2.483   1.355
  519SOL    HW3 2107   0.458   2.560   1.225
  519SOL    MW4 2108   0.427   2.494   1.271
  520SOL     OW 2109   0.483   2.743   1.146
  520SOL    HW2 2110   0.401   2.787   1.164
  520SOL    HW3 2111   0.483   2.729   1.052
  520SOL    MW4 2112   0.472   2.747   1.136
  521SOL     OW 2113   0.700   2.896   1.205
  521SOL    HW2 2114   0.694   2.982   1.164
  521SOL    HW3 2115   0.619   2.851   1.179
  521SOL    MW4 2116   0.689   2.901   1.196
  522SOL     OW 2117   0.674   3.157   1.094
  522SOL    HW2 2118   0.751   3.200   1.131
  522SOL    HW3 2119   0.696   3.143   1.002
  522SOL    MW4 2120   0.687   3.161   1.087
  523SOL     OW 2121   0.457   3.263   1.228
  523SOL    HW2 2122   0.441   3.347   1.185
  523SOL    HW3 2123   0.540   3.233   1.191
  523SOL    MW4 2124   0.466   3.270   1.218
  524SOL     OW 2125   0.447   3.509   1.092
  524SOL    HW2 2126   0.519   3.559   1.130
  524SOL    HW3 2127   0.368   3.558   1.117
  524SOL    MW4 2128   0.446   3.522   1.101
  525SOL     OW 2129   0.684   3.610   1.228
  525SOL    HW2 2130   0.689   3.622   1.323
  525SOL    HW3 2131   0.682   3.698   1.192
  525SOL    MW4 2132   0.684   3.623   1.236
  526SOL     OW 2133   0.700   3.882   1.105
  526SOL    HW2 2134   0.618   3.919   1.137
  526SOL    HW3 2135   0.688   3.876   1.010
  526SOL    MW4 2136   0.688   3.886   1.097
  527SOL     OW 2137   0.464   3.992   1.172
  527SOL    HW2 2138   0.458   4.082   1.143
  527SOL    HW3 2139   0.391   3.948   1.130
  527SOL    MW4 2140   0.454   3.998   1.163
  528SOL     OW 2141   0.474   4.289   1.058
  528SOL    HW2 2142   0.536   4.329   1.119
  528SOL    HW3 2143   0.388   4.319   1.087
  528SOL    MW4 2144   0.471   4.298   1.070
  529SOL     OW 2145   0.686   4.402   1.182
  529SOL    HW2 2146   0.697   4.394   1.277
  529SOL    HW3 2147   0.770   4.373   1.146
  529SOL    MW4 2148   0.699   4.397   1.190
  530SOL     OW 2149   1.143   0.024   1.105
  530SOL    HW2 2150   1.141  -0.059   1.153
  530SOL    HW3 2151   1.133  -0.002   1.013
  530SOL    MW4 2152   1.141   0.010   1.099
  531SOL     OW 2153   0.906   0.164   1.168
  531SOL    HW2 2154   0.909   0.159   1.263
  531SOL    HW3 2155   0.981   0.110   1.139
  531SOL    MW4 2156   0.917   0.156   1.176
  532SOL     OW 2157   0.904   0.428   1.081
  532SOL    HW2 2158   0.904   0.334   1.099
  532SOL    HW3 2159   0.836   0.463   1.138
  532SOL    MW4 2160   0.895   0.420   1.091
  533SOL     OW 2161   1.149   0.526   1.186
  533SOL    HW2 2162   1.145   0.516   1.281
  533SOL    HW3 2163   1.071   0.480   1.154
  533SOL    MW4 2164   1.138   0.518   1.194
  534SOL     OW 2165   1.149   0.779   1.078
  534SOL    HW2 2166   1.084   0.838   1.116
  534SOL    HW3 2167   1.149   0.703   1.135
  534SOL    MW4 2168   1.141   0.777   1.090
  535SOL     OW 2169   0.929   0.928   1.169
  535SOL    HW2 2170   0.919   1.021   1.149
  535SOL    HW3 2171   0.841   0.891   1.160
  535SOL    MW4 2172   0.916   0.935   1.165
  536SOL     OW 2173   0.891   1.205   1.136
  536SOL    HW2 2174   0.982   1.231   1.147
  536SOL    HW3 2175   0.871   1.223   1.044
  536SOL    MW4 2176   0.900   1.211   1.126
  537SOL     OW 2177   1.147   1.318   1.237
  537SOL    HW2 2178   1.121   1.304   1.328
  537SOL    HW3 2179   1.220   1.258   1.223
  537SOL    MW4 2180   1.153   1.308   1.247
  538SOL     OW 2181   1.111   1.577   1.161
  538SOL    HW2 2182   1.125   1.485   1.180
  538SOL    HW3 2183   1.093   1.581   1.067
  538SOL    MW4 2184   1.110   1.566   1.151
  539SOL     OW 2185   0.904   1.735   1.240
  539SOL    HW2 2186   0.917   1.822   1.201
  539SOL    HW3 2187   0.981   1.685   1.215
  539SOL    MW4 2188   0.916   1.740   1.231
  540SOL     OW 2189   0.914   1.986   1.106
  540SOL    HW2 2190   0.997   2.019   1.141
  540SOL    HW3 2191   0.849   2.008   1.172
  540SOL    MW4 2192   0.916   1.993   1.119
  541SOL     OW 2193   1.107   2.092   1.285
  541SOL    HW2 2194   1.063   2.121   1.365
  541SOL    HW3 2195   1.114   2.171   1.232
  541SOL    MW4 2196   1.102   2.106   1.289
  542SOL     OW 2197   1.098   2.329   1.109
  542SOL    HW2 2198   1.169   2.386   1.139
  542SOL    HW3 2199   1.019   2.372   1.140
  542SOL    MW4 2200   1.097   2.342   1.117
  543SOL     OW 2201   0.886   2.463   1.227
  543SOL    HW2 2202   0.895   2.453   1.322
  543SOL    HW3 2203   0.805   2.416   1.206
  543SOL    MW4 2204   0.876   2.455   1.237
  544SOL     OW 2205   0.925   2.726   1.170
  544SOL    HW2 2206   0.905   2.634   1.192
  544SOL    HW3 2207   0.842   2.772   1.183
  544SOL    MW4 2208   0.911   2.720   1.175
  545SOL     OW 2209   1.128   2.878   1.249
  545SOL    HW2 2210   1.134   2.890   1.344
  545SOL    HW3 2211   1.054   2.819   1.236
  545SOL    MW4 2212   1.119   2.872   1.260
  546SOL     OW 2213   1.148   3.130   1.092
  546SOL    HW2 2214   1.128   3.044   1.131
  546SOL    HW3 2215   1.128   3.119   0.999
  546SOL    MW4 2216   1.143   3.117   1.085
  547SOL     OW 2217   0.924   3.255   1.216
  547SOL    HW2 2218   0.927   3.342   1.177
  547SOL    HW3 2219   0.988   3.204   1.167
  547SOL    MW4 2220   0.933   3.260   1.205
  548SOL     OW 2221   0.933   3.513   1.115
  548SOL    HW2 2222   0.849   3.534   1.157
  548SOL    HW3 2223   0.918   3.528   1.022
  548SOL    MW4 2224   0.920   3.518   1.108
  549SOL     OW 2225   1.137   3.677   1.229
  549SOL    HW2 2226   1.210   3.615   1.229
  549SOL    HW3 2227   1.068   3.633   1.181
  549SOL    MW4 2228   1.138   3.663   1.223
  550SOL     OW 2229   1.130   3.930   1.116
  550SOL    HW2 2230   1.039   3.953   1.139
  550SOL    HW3 2231   1.139   3.840   1.146
  550SOL    MW4 2232   1.119   3.921   1.123
  551SOL     OW 2233   0.895   4.052   1.205
  551SOL    HW2 2234   0.897   4.034   1.299
  551SOL    HW3 2235   0.831   3.988   1.170
  551SOL    MW4 2236   0.887   4.041   1.213
  552SOL     OW 2237   0.934   4.313   1.081
  552SOL    HW2 2238   0.935   4.222   1.112
  552SOL    HW3 2239   0.921   4.305   0.986
  552SOL    MW4 2240   0.932   4.300   1.072
  553SOL     OW 2241   1.122   4.446   1.230
  553SOL    HW2 2242   1.119   4.407   1.318
  553SOL    HW3 2243   1.044   4.413   1.186
  553SOL    MW4 2244   1.112   4.436   1.236
  554SOL     OW 2245   1.569   4.659   1.122
  554SOL    HW2 2246   1.640   4.714   1.155
  554SOL    HW3 2247   1.583   4.575   1.165
  554SOL    MW4 2248   1.580   4.655   1.132
  555SOL     OW 2249   1.364   0.131   1.268
  555SOL    HW2 2250   1.433   0.070   1.242
  555SOL    HW3 2251   1.287   0.102   1.218
  555SOL    MW4 2252   1.363   0.119   1.258
  556SOL     OW 2253   1.387   0.373   1.135
  556SOL    HW2 2254   1.368   0.291   1.180
  556SOL    HW3 2255   1.306   0.424   1.141
  556SOL    MW4 2256   1.374   0.369   1.142
  557SOL     OW 2257   1.569   0.558   1.263
  557SOL    HW2 2258   1.553   0.639   1.214
  557SOL    HW3 2259   1.512   0.494   1.221
  557SOL    MW4 2260   1.559   0.561   1.251
  558SOL     OW 2261   1.582   0.784   1.111
  558SOL    HW2 2262   1.663   0.820   1.148
  558SOL    HW3 2263   1.596   0.789   1.016
  558SOL    MW4 2264   1.595   0.789   1.103
  559SOL     OW 2265   1.355   0.917   1.194
  559SOL    HW2 2266   1.431   0.869   1.159
  559SOL    HW3 2267   1.279   0.869   1.161
  559SOL    MW4 2268   1.355   0.904   1.185
  560SOL     OW 2269   1.371   1.184   1.136
  560SOL    HW2 2270   1.372   1.089   1.149
  560SOL    HW3 2271   1.361   1.195   1.041
  560SOL    MW4 2272   1.370   1.173   1.125
  561SOL     OW 2273   1.584   1.347   1.206
  561SOL    HW2 2274   1.668   1.308   1.183
  561SOL    HW3 2275   1.519   1.282   1.177
  561SOL    MW4 2276   1.586   1.334   1.199
  562SOL     OW 2277   1.581   1.611   1.123
  562SOL    HW2 2278   1.667   1.638   1.156
  562SOL    HW3 2279   1.577   1.517   1.143
  562SOL    MW4 2280   1.592   1.602   1.130
  563SOL     OW 2281   1.344   1.712   1.231
  563SOL    HW2 2282   1.423   1.681   1.187
  563SOL    HW3 2283   1.279   1.644   1.212
  563SOL    MW4 2284   1.346   1.699   1.222
  564SOL     OW 2285   1.333   1.983   1.172
  564SOL    HW2 2286   1.347   1.888   1.181
  564SOL    HW3 2287   1.253   2.000   1.221
  564SOL    MW4 2288   1.325   1.973   1.180
  565SOL     OW 2289   1.570   2.114   1.219
  565SOL    HW2 2290   1.587   2.189   1.162
  565SOL    HW3 2291   1.483   2.084   1.194
  565SOL    MW4 2292   1.561   2.120   1.208
  566SOL     OW 2293   1.535   2.365   1.071
  566SOL    HW2 2294   1.445   2.394   1.085
  566SOL    HW3 2295   1.549   2.379   0.977
  566SOL    MW4 2296   1.525   2.371   1.060
  567SOL     OW 2297   1.312   2.469   1.203
  567SOL    HW2 2298   1.318   2.478   1.298
  567SOL    HW3 2299   1.316   2.558   1.169
  567SOL    MW4 2300   1.313   2.482   1.211
  568SOL     OW 2301   1.350   2.748   1.135
  568SOL    HW2 2302   1.437   2.783   1.150
  568SOL    HW3 2303   1.291   2.809   1.179
  568SOL    MW4 2304   1.353   2.760   1.143
  569SOL     OW 2305   1.595   2.840   1.201
  569SOL    HW2 2306   1.668   2.797   1.157
  569SOL    HW3 2307   1.603   2.932   1.175
  569SOL    MW4 2308   1.606   2.847   1.192
  570SOL     OW 2309   1.610   3.105   1.116
  570SOL    HW2 2310   1.688   3.150   1.149
  570SOL    HW3 2311   1.537   3.147   1.163
  570SOL    MW4 2312   1.611   3.117   1.127
  571SOL     OW 2313   1.393   3.244   1.228
  571SOL    HW2 2314   1.367   3.256   1.319
  571SOL    HW3 2315   1.315   3.206   1.186
  571SOL    MW4 2316   1.379   3.241   1.234
  572SOL     OW 2317   1.359   3.503   1.149
  572SOL    HW2 2318   1.367   3.411   1.174
  572SOL    HW3 2319   1.364   3.503   1.054
  572SOL    MW4 2320   1.361   3.491   1.140
  573SOL     OW 2321   1.596   3.632   1.201
  573SOL    HW2 2322   1.586   3.726   1.187
  573SOL    HW3 2323   1.510   3.596   1.179
  573SOL    MW4 2324   1.583   3.639   1.196
  574SOL     OW 2325   1.577   3.905   1.142
  574SOL    HW2 2326   1.506   3.961   1.174
  574SOL    HW3 2327   1.563   3.901   1.047
  574SOL    MW4 2328   1.566   3.912   1.134
  575SOL     OW 2329   1.347   4.065   1.235
  575SOL    HW2 2330   1.339   4.153   1.198
  575SOL    HW3 2331   1.270   4.018   1.203
  575SOL    MW4 2332   1.336   4.071   1.226
  576SOL     OW 2333   1.366   4.319   1.127
  576SOL    HW2 2334   1.292   4.380   1.136
  576SOL    HW3 2335   1.370   4.302   1.033
  576SOL    MW4 2336   1.357   4.325   1.116
  577SOL     OW 2337   1.612   4.415   1.241
  577SOL    HW2 2338   1.604   4.417   1.336
  577SOL    HW3 2339   1.525   4.388   1.210
  577SOL    MW4 2340   1.599   4.412   1.249
  578SOL     OW 2341   1.955   4.664   1.042
  578SOL    HW2 2342   1.988   4.587   1.089
  578SOL    HW3 2343   1.958   4.639   0.950
  578SOL    MW4 2344   1.960   4.651   1.036
  579SOL     OW 2345   1.768   0.150   1.204
  579SOL    HW2 2346   1.776   0.242   1.180
  579SOL    HW3 2347   1.822   0.103   1.141
  579SOL    MW4 2348   1.776   0.156   1.193
  580SOL     OW 2349   1.789   0.425   1.138
  580SOL    HW2 2350   1.714   0.468   1.179
  580SOL    HW3 2351   1.783   0.450   1.046
  580SOL    MW4 2352   1.778   0.434   1.131
  581SOL     OW 2353   2.017   0.533   1.232
  581SOL    HW2 2354   2.009   0.533   1.327
  581SOL    HW3 2355   1.938   0.489   1.200
  581SOL    MW4 2356   2.006   0.527   1.240
  582SOL     OW 2357   2.007   0.776   1.113
  582SOL    HW2 2358   2.019   0.690   1.151
  582SOL    HW3 2359   1.986   0.759   1.021
  582SOL    MW4 2360   2.006   0.763   1.105
  583SOL     OW 2361   1.803   0.934   1.200
  583SOL    HW2 2362   1.789   0.922   1.294
  583SOL    HW3 2363   1.876   0.876   1.178
  583SOL    MW4 2364   1.811   0.925   1.209
  584SOL     OW 2365   1.807   1.217   1.120
  584SOL    HW2 2366   1.822   1.123   1.131
  584SOL    HW3 2367   1.786   1.226   1.027
  584SOL    MW4 2368   1.806   1.206   1.109
  585SOL     OW 2369   2.045   1.278   1.258
  585SOL    HW2 2370   2.111   1.225   1.213
  585SOL    HW3 2371   1.968   1.272   1.202
  585SOL    MW4 2372   2.044   1.270   1.245
  586SOL     OW 2373   2.065   1.535   1.157
  586SOL    HW2 2374   2.071   1.447   1.192
  586SOL    HW3 2375   2.069   1.524   1.062
  586SOL    MW4 2376   2.066   1.522   1.149
  587SOL     OW 2377   1.827   1.682   1.231
  587SOL    HW2 2378   1.842   1.772   1.204
  587SOL    HW3 2379   1.902   1.634   1.194
  587SOL    MW4 2380   1.839   1.687   1.222
  588SOL     OW 2381   1.793   1.956   1.160
  588SOL    HW2 2382   1.708   1.997   1.180
  588SOL    HW3 2383   1.792   1.944   1.065
  588SOL    MW4 2384   1.781   1.959   1.150
  589SOL     OW 2385   2.038   2.066   1.233
  589SOL    HW2 2386   2.033   2.080   1.328
  589SOL    HW3 2387   1.959   2.017   1.212
  589SOL    MW4 2388   2.027   2.061   1.243
  590SOL     OW 2389   1.982   2.320   1.078
  590SOL    HW2 2390   2.054   2.355   1.129
  590SOL    HW3 2391   1.969   2.231   1.111
  590SOL    MW4 2392   1.990   2.313   1.089
  591SOL     OW 2393   1.761   2.470   1.190
  591SOL    HW2 2394   1.837   2.416   1.171
  591SOL    HW3 2395   1.688   2.427   1.146
  591SOL    MW4 2396   1.761   2.457   1.182
  592SOL     OW 2397   1.804   2.721   1.081
  592SOL    HW2 2398   1.790   2.632   1.113
  592SOL    HW3 2399   1.802   2.712   0.985
  592SOL    MW4 2400   1.802   2.708   1.072
  593SOL     OW 2401   2.029   2.831   1.222
  593SOL    HW2 2402   2.028   2.923   1.198
  593SOL    HW3 2403   1.944   2.798   1.194
  593SOL    MW4 2404   2.018   2.839   1.215
  594SOL     OW 2405   2.036   3.087   1.140
  594SOL    HW2 2406   1.954   3.130   1.165
  594SOL    HW3 2407   2.031   3.081   1.044
  594SOL    MW4 2408   2.024   3.092   1.130
  595SOL     OW 2409   1.840   3.239   1.223
  595SOL    HW2 2410   1.837   3.233   1.318
  595SOL    HW3 2411   1.853   3.332   1.205
  595SOL    MW4 2412   1.841   3.251   1.233
  596SOL     OW 2413   1.838   3.505   1.179
  596SOL    HW2 2414   1.901   3.568   1.214
  596SOL    HW3 2415   1.752   3.544   1.199
  596SOL    MW4 2416   1.835   3.519   1.187
  597SOL     OW 2417   2.053   3.627   1.283
  597SOL    HW2 2418   2.052   3.612   1.378
  597SOL    HW3 2419   2.126   3.575   1.251
  597SOL    MW4 2420   2.062   3.618   1.291
  598SOL     OW 2421   2.051   3.868   1.160
  598SOL    HW2 2422   1.962   3.902   1.174
  598SOL    HW3 2423   2.052   3.785   1.208
  598SOL    MW4 2424   2.039   3.861   1.168
  599SOL     OW 2425   1.823   4.023   1.213
  599SOL    HW2 2426   1.833   4.039   1.307
  599SOL    HW3 2427   1.736   3.982   1.205
  599SOL    MW4 2428   1.813   4.019   1.224
  600SOL     OW 2429   1.822   4.286   1.123
  600SOL    HW2 2430   1.823   4.196   1.153
  600SOL    HW3 2431   1.737   4.321   1.152
  600SOL    MW4 2432   1.811   4.279   1.131
  601SOL     OW 2433   2.046   4.429   1.191
  601SOL    HW2 2434   2.042   4.423   1.287
  601SOL    HW3 2435   1.966   4.386   1.161
  601SOL    MW4 2436   2.035   4.423   1.200
  602SOL     OW 2437   2.426   4.637   1.091
  602SOL    HW2 2438   2.490   4.706   1.110
  602SOL    HW3 2439   2.344   4.670   1.127
  602SOL    MW4 2440   2.423   4.651   1.098
  603SOL     OW 2441   2.189   0.096   1.188
  603SOL    HW2 2442   2.195   0.186   1.156
  603SOL    HW3 2443   2.119   0.056   1.135
  603SOL    MW4 2444   2.180   0.102   1.177
  604SOL     OW 2445   2.223   0.376   1.126
  604SOL    HW2 2446   2.154   0.432   1.163
  604SOL    HW3 2447   2.226   0.401   1.033
  604SOL    MW4 2448   2.214   0.387   1.118
  605SOL     OW 2449   2.448   0.506   1.206
  605SOL    HW2 2450   2.462   0.492   1.299
  605SOL    HW3 2451   2.362   0.468   1.189
  605SOL    MW4 2452   2.438   0.499   1.216
  606SOL     OW 2453   2.486   0.713   1.041
  606SOL    HW2 2454   2.474   0.639   1.101
  606SOL    HW3 2455   2.505   0.672   0.956
  606SOL    MW4 2456   2.487   0.698   1.038
  607SOL     OW 2457   2.260   0.880   1.206
  607SOL    HW2 2458   2.316   0.823   1.153
  607SOL    HW3 2459   2.171   0.857   1.179
  607SOL    MW4 2460   2.255   0.869   1.195
  608SOL     OW 2461   2.233   1.138   1.117
  608SOL    HW2 2462   2.320   1.173   1.138
  608SOL    HW3 2463   2.239   1.045   1.136
  608SOL    MW4 2464   2.246   1.131   1.122
  609SOL     OW 2465   2.496   1.231   1.216
  609SOL    HW2 2466   2.563   1.185   1.165
  609SOL    HW3 2467   2.496   1.320   1.181
  609SOL    MW4 2468   2.505   1.237   1.204
  610SOL     OW 2469   2.478   1.500   1.138
  610SOL    HW2 2470   2.422   1.563   1.184
  610SOL    HW3 2471   2.463   1.518   1.046
  610SOL    MW4 2472   2.469   1.511   1.132
  611SOL     OW 2473   2.294   1.665   1.253
  611SOL    HW2 2474   2.287   1.748   1.206
  611SOL    HW3 2475   2.214   1.617   1.230
  611SOL    MW4 2476   2.282   1.670   1.244
  612SOL     OW 2477   2.260   1.907   1.142
  612SOL    HW2 2478   2.184   1.946   1.184
  612SOL    HW3 2479   2.246   1.922   1.048
  612SOL    MW4 2480   2.248   1.914   1.135
  613SOL     OW 2481   2.456   2.077   1.193
  613SOL    HW2 2482   2.521   2.010   1.172
  613SOL    HW3 2483   2.372   2.035   1.177
  613SOL    MW4 2484   2.454   2.063   1.188
  614SOL     OW 2485   2.452   2.351   1.147
  614SOL    HW2 2486   2.446   2.260   1.174
  614SOL    HW3 2487   2.432   2.349   1.053
  614SOL    MW4 2488   2.449   2.339   1.138
  615SOL     OW 2489   2.183   2.442   1.220
  615SOL    HW2 2490   2.190   2.429   1.315
  615SOL    HW3 2491   2.250   2.385   1.183
  615SOL    MW4 2492   2.193   2.433   1.228
  616SOL     OW 2493   2.245   2.704   1.126
  616SOL    HW2 2494   2.237   2.619   1.171
  616SOL    HW3 2495   2.161   2.748   1.144
  616SOL    MW4 2496   2.233   2.698   1.134
  617SOL     OW 2497   2.460   2.824   1.247
  617SOL    HW2 2498   2.436   2.844   1.338
  617SOL    HW3 2499   2.384   2.778   1.212
  617SOL    MW4 2500   2.446   2.821   1.255
  618SOL     OW 2501   2.463   3.054   1.084
  618SOL    HW2 2502   2.381   3.093   1.113
  618SOL    HW3 2503   2.464   2.967   1.124
  618SOL    MW4 2504   2.453   3.048   1.093
  619SOL     OW 2505   2.273   3.219   1.223
  619SOL    HW2 2506   2.264   3.312   1.201
  619SOL    HW3 2507   2.190   3.180   1.195
  619SOL    MW4 2508   2.261   3.226   1.217
  620SOL     OW 2509   2.256   3.489   1.159
  620SOL    HW2 2510   2.334   3.539   1.184
  620SOL    HW3 2511   2.261   3.483   1.064
  620SOL    MW4 2512   2.267   3.495   1.150
  621SOL     OW 2513   2.488   3.649   1.199
  621SOL    HW2 2514   2.510   3.651   1.292
  621SOL    HW3 2515   2.483   3.741   1.173
  621SOL    MW4 2516   2.490   3.661   1.207
  622SOL     OW 2517   2.493   3.901   1.088
  622SOL    HW2 2518   2.421   3.959   1.111
  622SOL    HW3 2519   2.492   3.897   0.993
  622SOL    MW4 2520   2.484   3.908   1.079
  623SOL     OW 2521   2.272   4.010   1.220
  623SOL    HW2 2522   2.257   4.098   1.188
  623SOL    HW3 2523   2.189   3.965   1.208
  623SOL    MW4 2524   2.259   4.015   1.215
  624SOL     OW 2525   2.256   4.251   1.094
  624SOL    HW2 2526   2.189   4.315   1.116
  624SOL    HW3 2527   2.262   4.254   0.998
  624SOL    MW4 2528   2.248   4.260   1.084
  625SOL     OW 2529   2.475   4.387   1.191
  625SOL    HW2 2530   2.393   4.348   1.160
  625SOL    HW3 2531   2.470   4.478   1.163
  625SOL    MW4 2532   2.463   4.394   1.183
  626SOL     OW 2533   2.913   4.652   1.050
  626SOL    HW2 2534   2.908   4.568   1.095
  626SOL    HW3 2535   2.916   4.629   0.957
  626SOL    MW4 2536   2.913   4.638   1.044
  627SOL     OW 2537   2.645   0.095   1.173
  627SOL    HW2 2538   2.665   0.100   1.267
  627SOL    HW3 2539   2.725   0.061   1.134
  627SOL    MW4 2540   2.659   0.091   1.181
  628SOL     OW 2541   2.684   0.371   1.128
  628SOL    HW2 2542   2.671   0.278   1.145
  628SOL    HW3 2543   2.610   0.414   1.172
  628SOL    MW4 2544   2.672   0.365   1.136
  629SOL     OW 2545   2.918   0.497   1.265
  629SOL    HW2 2546   2.922   0.580   1.218
  629SOL    HW3 2547   2.845   0.450   1.225
  629SOL    MW4 2548   2.909   0.501   1.254
  630SOL     OW 2549   2.902   0.717   1.106
  630SOL    HW2 2550   2.965   0.767   1.159
  630SOL    HW3 2551   2.817   0.753   1.130
  630SOL    MW4 2552   2.899   0.728   1.117
  631SOL     OW 2553   2.672   0.847   1.189
  631SOL    HW2 2554   2.672   0.939   1.160
  631SOL    HW3 2555   2.606   0.805   1.135
  631SOL    MW4 2556   2.663   0.854   1.178
  632SOL     OW 2557   2.709   1.114   1.097
  632SOL    HW2 2558   2.778   1.168   1.136
  632SOL    HW3 2559   2.704   1.145   1.006
  632SOL    MW4 2560   2.718   1.125   1.090
  633SOL     OW 2561   2.926   1.266   1.214
  633SOL    HW2 2562   2.927   1.283   1.308
  633SOL    HW3 2563   2.910   1.352   1.174
  633SOL    MW4 2564   2.924   1.280   1.221
  634SOL     OW 2565   2.881   1.530   1.097
  634SOL    HW2 2566   2.957   1.576   1.131
  634SOL    HW3 2567   2.882   1.546   1.003
  634SOL    MW4 2568   2.891   1.538   1.089
  635SOL     OW 2569   2.670   1.654   1.232
  635SOL    HW2 2570   2.744   1.630   1.176
  635SOL    HW3 2571   2.599   1.596   1.204
  635SOL    MW4 2572   2.671   1.644   1.221
  636SOL     OW 2573   2.663   1.918   1.120
  636SOL    HW2 2574   2.751   1.955   1.120
  636SOL    HW3 2575   2.673   1.831   1.160
  636SOL    MW4 2576   2.676   1.911   1.125
  637SOL     OW 2577   2.912   2.030   1.194
  637SOL    HW2 2578   2.918   2.017   1.289
  637SOL    HW3 2579   2.900   2.124   1.184
  637SOL    MW4 2580   2.911   2.040   1.206
  638SOL     OW 2581   2.890   2.299   1.161
  638SOL    HW2 2582   2.971   2.340   1.191
  638SOL    HW3 2583   2.820   2.354   1.197
  638SOL    MW4 2584   2.891   2.311   1.170
  639SOL     OW 2585   2.686   2.458   1.253
  639SOL    HW2 2586   2.696   2.445   1.347
  639SOL    HW3 2587   2.601   2.419   1.233
  639SOL    MW4 2588   2.676   2.451   1.263
  640SOL     OW 2589   2.684   2.706   1.117
  640SOL    HW2 2590   2.695   2.626   1.168
  640SOL    HW3 2591   2.605   2.747   1.152
  640SOL    MW4 2592   2.675   2.701   1.128
  641SOL     OW 2593   2.918   2.851   1.228
  641SOL    HW2 2594   2.919   2.843   1.323
  641SOL    HW3 2595   2.837   2.807   1.202
  641SOL    MW4 2596   2.908   2.844   1.237
  642SOL     OW 2597   2.908   3.119   1.153
  642SOL    HW2 2598   2.896   3.025   1.167
  642SOL    HW3 2599   2.913   3.128   1.058
  642SOL    MW4 2600   2.907   3.108   1.142
  643SOL     OW 2601   2.658   3.223   1.227
  643SOL    HW2 2602   2.743   3.201   1.189
  643SOL    HW3 2603   2.595   3.171   1.177
  643SOL    MW4 2604   2.661   3.213   1.215
  644SOL     OW 2605   2.683   3.475   1.098
  644SOL    HW2 2606   2.665   3.394   1.145
  644SOL    HW3 2607   2.614   3.535   1.125
  644SOL    MW4 2608   2.672   3.472   1.108
  645SOL     OW 2609   2.902   3.600   1.191
  645SOL    HW2 2610   2.986   3.558   1.175
  645SOL    HW3 2611   2.838   3.544   1.146
  645SOL    MW4 2612   2.905   3.587   1.183
  646SOL     OW 2613   2.956   3.865   1.109
  646SOL    HW2 2614   3.018   3.908   1.168
  646SOL    HW3 2615   2.944   3.778   1.146
  646SOL    MW4 2616   2.963   3.860   1.122
  647SOL     OW 2617   2.735   3.995   1.205
  647SOL    HW2 2618   2.805   3.938   1.173
  647SOL    HW3 2619   2.656   3.963   1.161
  647SOL    MW4 2620   2.734   3.983   1.195
  648SOL     OW 2621   2.714   4.263   1.122
  648SOL    HW2 2622   2.731   4.183   1.172
  648SOL    HW3 2623   2.642   4.305   1.168
  648SOL    MW4 2624   2.707   4.258   1.135
  649SOL     OW 2625   2.921   4.411   1.186
  649SOL    HW2 2626   2.994   4.355   1.161
  649SOL    HW3 2627   2.843   4.363   1.158
  649SOL    MW4 2628   2.920   4.397   1.179
  650SOL     OW 2629   3.360   4.651   1.093
  650SOL    HW2 2630   3.436   4.690   1.136
  650SOL    HW3 2631   3.287   4.708   1.119
  650SOL    MW4 2632   3.360   4.664   1.102
  651SOL     OW 2633   3.137   0.132   1.143
  651SOL    HW2 2634   3.119   0.133   1.237
  651SOL    HW3 2635   3.066   0.080   1.106
  651SOL    MW4 2636   3.126   0.125   1.151
  652SOL     OW 2637   3.160   0.443   1.130
  652SOL    HW2 2638   3.169   0.349   1.146
  652SOL    HW3 2639   3.078   0.466   1.174
  652SOL    MW4 2640   3.150   0.434   1.138
  653SOL     OW 2641   3.398   0.556   1.196
  653SOL    HW2 2642   3.391   0.646   1.163
  653SOL    HW3 2643   3.310   0.520   1.185
  653SOL    MW4 2644   3.385   0.563   1.190
  654SOL     OW 2645   3.358   0.802   1.109
  654SOL    HW2 2646   3.268   0.813   1.139
  654SOL    HW3 2647   3.350   0.787   1.014
  654SOL    MW4 2648   3.345   0.801   1.100
  655SOL     OW 2649   3.102   0.854   1.226
  655SOL    HW2 2650   3.116   0.851   1.320
  655SOL    HW3 2651   3.118   0.946   1.202
  655SOL    MW4 2652   3.106   0.866   1.235
  656SOL     OW 2653   3.137   1.120   1.110
  656SOL    HW2 2654   3.222   1.145   1.145
  656SOL    HW3 2655   3.077   1.190   1.138
  656SOL    MW4 2656   3.140   1.132   1.118
  657SOL     OW 2657   3.380   1.252   1.177
  657SOL    HW2 2658   3.362   1.263   1.271
  657SOL    HW3 2659   3.346   1.332   1.137
  657SOL    MW4 2660   3.373   1.264   1.184
  658SOL     OW 2661   3.340   1.515   1.080
  658SOL    HW2 2662   3.418   1.558   1.112
  658SOL    HW3 2663   3.269   1.549   1.134
  658SOL    MW4 2664   3.341   1.525   1.091
  659SOL     OW 2665   3.127   1.603   1.215
  659SOL    HW2 2666   3.114   1.623   1.307
  659SOL    HW3 2667   3.115   1.687   1.171
  659SOL    MW4 2668   3.124   1.617   1.221
  660SOL     OW 2669   3.123   1.880   1.135
  660SOL    HW2 2670   3.199   1.929   1.167
  660SOL    HW3 2671   3.048   1.929   1.169
  660SOL    MW4 2672   3.123   1.893   1.144
  661SOL     OW 2673   3.330   2.036   1.224
  661SOL    HW2 2674   3.410   2.004   1.182
  661SOL    HW3 2675   3.324   2.127   1.195
  661SOL    MW4 2676   3.340   2.044   1.214
  662SOL     OW 2677   3.345   2.294   1.124
  662SOL    HW2 2678   3.412   2.345   1.169
  662SOL    HW3 2679   3.263   2.341   1.142
  662SOL    MW4 2680   3.343   2.307   1.133
  663SOL     OW 2681   3.127   2.438   1.233
  663SOL    HW2 2682   3.141   2.447   1.328
  663SOL    HW3 2683   3.135   2.528   1.200
  663SOL    MW4 2684   3.130   2.451   1.241
  664SOL     OW 2685   3.146   2.702   1.116
  664SOL    HW2 2686   3.068   2.750   1.144
  664SOL    HW3 2687   3.155   2.723   1.023
  664SOL    MW4 2688   3.137   2.711   1.107
  665SOL     OW 2689   3.370   2.822   1.244
  665SOL    HW2 2690   3.368   2.909   1.204
  665SOL    HW3 2691   3.292   2.778   1.210
  665SOL    MW4 2692   3.360   2.827   1.234
  666SOL     OW 2693   3.404   3.074   1.133
  666SOL    HW2 2694   3.477   3.123   1.171
  666SOL    HW3 2695   3.327   3.130   1.147
  666SOL    MW4 2696   3.403   3.088   1.140
  667SOL     OW 2697   3.173   3.202   1.186
  667SOL    HW2 2698   3.171   3.295   1.165
  667SOL    HW3 2699   3.081   3.175   1.188
  667SOL    MW4 2700   3.161   3.211   1.183
  668SOL     OW 2701   3.158   3.477   1.117
  668SOL    HW2 2702   3.237   3.523   1.145
  668SOL    HW3 2703   3.173   3.458   1.024
  668SOL    MW4 2704   3.170   3.481   1.108
  669SOL     OW 2705   3.387   3.602   1.225
  669SOL    HW2 2706   3.386   3.589   1.320
  669SOL    HW3 2707   3.466   3.557   1.196
  669SOL    MW4 2708   3.397   3.595   1.234
  670SOL     OW 2709   3.323   3.872   1.092
  670SOL    HW2 2710   3.255   3.920   1.140
  670SOL    HW3 2711   3.342   3.796   1.148
  670SOL    MW4 2712   3.316   3.868   1.106
  671SOL     OW 2713   3.140   4.012   1.245
  671SOL    HW2 2714   3.165   4.014   1.338
  671SOL    HW3 2715   3.160   4.100   1.213
  671SOL    MW4 2716   3.146   4.024   1.253
  672SOL     OW 2717   3.164   4.274   1.126
  672SOL    HW2 2718   3.252   4.296   1.158
  672SOL    HW3 2719   3.171   4.280   1.031
  672SOL    MW4 2720   3.177   4.278   1.117
  673SOL     OW 2721   3.404   4.398   1.196
  673SOL    HW2 2722   3.484   4.372   1.150
  673SOL    HW3 2723   3.381   4.482   1.158
  673SOL    MW4 2724   3.412   4.405   1.185
  674SOL     OW 2725   3.754   4.652   1.078
  674SOL    HW2 2726   3.778   4.561   1.097
  674SOL    HW3 2727   3.780   4.665   0.987
  674SOL    MW4 2728   3.761   4.642   1.069
  675SOL     OW 2729   3.569   0.142   1.205
  675SOL    HW2 2730   3.571   0.226   1.158
  675SOL    HW3 2731   3.631   0.087   1.159
  675SOL    MW4 2732   3.577   0.146   1.193
  676SOL     OW 2733   3.597   0.388   1.102
  676SOL    HW2 2734   3.678   0.421   1.141
  676SOL    HW3 2735   3.528   0.443   1.139
  676SOL    MW4 2736   3.598   0.400   1.112
  677SOL     OW 2737   3.834   0.491   1.201
  677SOL    HW2 2738   3.912   0.449   1.164
  677SOL    HW3 2739   3.842   0.582   1.174
  677SOL    MW4 2740   3.846   0.497   1.193
  678SOL     OW 2741   3.852   0.755   1.113
  678SOL    HW2 2742   3.928   0.808   1.134
  678SOL    HW3 2743   3.778   0.803   1.150
  678SOL    MW4 2744   3.852   0.768   1.120
  679SOL     OW 2745   3.601   0.885   1.209
  679SOL    HW2 2746   3.614   0.969   1.165
  679SOL    HW3 2747   3.514   0.856   1.181
  679SOL    MW4 2748   3.591   0.892   1.200
  680SOL     OW 2749   3.614   1.146   1.077
  680SOL    HW2 2750   3.696   1.181   1.112
  680SOL    HW3 2751   3.545   1.196   1.120
  680SOL    MW4 2752   3.616   1.157   1.087
  681SOL     OW 2753   3.854   1.269   1.193
  681SOL    HW2 2754   3.829   1.265   1.285
  681SOL    HW3 2755   3.859   1.363   1.173
  681SOL    MW4 2756   3.852   1.281   1.202
  682SOL     OW 2757   3.836   1.541   1.125
  682SOL    HW2 2758   3.883   1.611   1.170
  682SOL    HW3 2759   3.861   1.551   1.033
  682SOL    MW4 2760   3.845   1.551   1.119
  683SOL     OW 2761   3.566   1.659   1.174
  683SOL    HW2 2762   3.581   1.752   1.154
  683SOL    HW3 2763   3.647   1.616   1.148
  683SOL    MW4 2764   3.579   1.666   1.168
  684SOL     OW 2765   3.576   1.936   1.115
  684SOL    HW2 2766   3.651   1.986   1.146
  684SOL    HW3 2767   3.572   1.954   1.021
  684SOL    MW4 2768   3.585   1.945   1.106
  685SOL     OW 2769   3.820   2.080   1.181
  685SOL    HW2 2770   3.838   2.074   1.274
  685SOL    HW3 2771   3.894   2.034   1.139
  685SOL    MW4 2772   3.832   2.073   1.188
  686SOL     OW 2773   3.793   2.321   1.071
  686SOL    HW2 2774   3.873   2.367   1.095
  686SOL    HW3 2775   3.803   2.234   1.109
  686SOL    MW4 2776   3.805   2.315   1.079
  687SOL     OW 2777   3.574   2.443   1.192
  687SOL    HW2 2778   3.588   2.445   1.287
  687SOL    HW3 2779   3.652   2.400   1.158
  687SOL    MW4 2780   3.586   2.438   1.200
  688SOL     OW 2781   3.531   2.693   1.072
  688SOL    HW2 2782   3.546   2.604   1.103
  688SOL    HW3 2783   3.463   2.728   1.130
  688SOL    MW4 2784   3.524   2.686   1.084
  689SOL     OW 2785   3.771   2.833   1.198
  689SOL    HW2 2786   3.758   2.828   1.293
  689SOL    HW3 2787   3.695   2.787   1.162
  689SOL    MW4 2788   3.759   2.827   1.206
  690SOL     OW 2789   3.829   3.093   1.159
  690SOL    HW2 2790   3.826   3.000   1.183
  690SOL    HW3 2791   3.784   3.098   1.075
  690SOL    MW4 2792   3.822   3.082   1.151
  691SOL     OW 2793   3.608   3.216   1.264
  691SOL    HW2 2794   3.600   3.286   1.199
  691SOL    HW3 2795   3.689   3.172   1.242
  691SOL    MW4 2796   3.617   3.219   1.253
  692SOL     OW 2797   3.585   3.455   1.121
  692SOL    HW2 2798   3.667   3.490   1.157
  692SOL    HW3 2799   3.599   3.456   1.026
  692SOL    MW4 2800   3.598   3.460   1.113
  693SOL     OW 2801   3.790   3.602   1.209
  693SOL    HW2 2802   3.821   3.577   1.296
  693SOL    HW3 2803   3.784   3.698   1.212
  693SOL    MW4 2804   3.793   3.612   1.221
  694SOL     OW 2805   3.836   3.876   1.037
  694SOL    HW2 2806   3.767   3.921   1.085
  694SOL    HW3 2807   3.791   3.822   0.973
  694SOL    MW4 2808   3.821   3.875   1.035
  695SOL     OW 2809   3.593   3.965   1.174
  695SOL    HW2 2810   3.603   3.971   1.269
  695SOL    HW3 2811   3.498   3.959   1.160
  695SOL    MW4 2812   3.581   3.965   1.184
  696SOL     OW 2813   3.605   4.231   1.068
  696SOL    HW2 2814   3.626   4.146   1.106
  696SOL    HW3 2815   3.584   4.213   0.977
  696SOL    MW4 2816   3.605   4.218   1.061
  697SOL     OW 2817   3.823   4.368   1.160
  697SOL    HW2 2818   3.794   4.363   1.252
  697SOL    HW3 2819   3.761   4.312   1.113
  697SOL    MW4 2820   3.811   4.360   1.166
  698SOL     OW 2821   4.251   4.628   1.095
  698SOL    HW2 2822   4.262   4.538   1.125
  698SOL    HW3 2823   4.168   4.657   1.131
  698SOL    MW4 2824   4.242   4.620   1.104
  699SOL     OW 2825   3.997   0.103   1.168
  699SOL    HW2 2826   3.998   0.101   1.264
  699SOL    HW3 2827   3.906   0.087   1.144
  699SOL    MW4 2828   3.985   0.100   1.177
  700SOL     OW 2829   4.046   0.350   1.093
  700SOL    HW2 2830   4.017   0.260   1.112
  700SOL    HW3 2831   4.058   0.352   0.998
  700SOL    MW4 2832   4.044   0.338   1.083
  701SOL     OW 2833   4.287   0.445   1.182
  701SOL    HW2 2834   4.290   0.466   1.275
  701SOL    HW3 2835   4.207   0.393   1.172
  701SOL    MW4 2836   4.277   0.441   1.193
  702SOL     OW 2837   4.288   0.708   1.102
  702SOL    HW2 2838   4.285   0.615   1.126
  702SOL    HW3 2839   4.286   0.708   1.006
  702SOL    MW4 2840   4.288   0.696   1.092
  703SOL     OW 2841   4.067   0.897   1.200
  703SOL    HW2 2842   4.079   0.911   1.294
  703SOL    HW3 2843   4.139   0.838   1.175
  703SOL    MW4 2844   4.078   0.891   1.209
  704SOL     OW 2845   4.060   1.145   1.071
  704SOL    HW2 2846   4.070   1.058   1.110
  704SOL    HW3 2847   3.984   1.183   1.116
  704SOL    MW4 2848   4.051   1.138   1.082
  705SOL     OW 2849   4.279   1.292   1.162
  705SOL    HW2 2850   4.264   1.303   1.256
  705SOL    HW3 2851   4.199   1.252   1.129
  705SOL    MW4 2852   4.267   1.288   1.170
  706SOL     OW 2853   4.195   1.546   1.143
  706SOL    HW2 2854   4.220   1.455   1.161
  706SOL    HW3 2855   4.265   1.598   1.183
  706SOL    MW4 2856   4.208   1.541   1.151
  707SOL     OW 2857   4.014   1.731   1.223
  707SOL    HW2 2858   4.015   1.743   1.317
  707SOL    HW3 2859   4.080   1.663   1.206
  707SOL    MW4 2860   4.023   1.724   1.233
  708SOL     OW 2861   4.012   1.948   1.035
  708SOL    HW2 2862   4.002   1.862   1.076
  708SOL    HW3 2863   4.040   1.929   0.946
  708SOL    MW4 2864   4.015   1.934   1.029
  709SOL     OW 2865   4.258   2.017   1.201
  709SOL    HW2 2866   4.268   2.112   1.192
  709SOL    HW3 2867   4.176   1.998   1.155
  709SOL    MW4 2868   4.248   2.027   1.194
  710SOL     OW 2869   4.268   2.291   1.100
  710SOL    HW2 2870   4.204   2.352   1.136
  710SOL    HW3 2871   4.247   2.286   1.007
  710SOL    MW4 2872   4.257   2.299   1.092
  711SOL     OW 2873   4.039   2.458   1.181
  711SOL    HW2 2874   4.053   2.465   1.275
  711SOL    HW3 2875   4.025   2.549   1.153
  711SOL    MW4 2876   4.039   2.471   1.190
  712SOL     OW 2877   4.008   2.744   1.124
  712SOL    HW2 2878   3.919   2.761   1.155
  712SOL    HW3 2879   4.005   2.763   1.030
  712SOL    MW4 2880   3.996   2.749   1.116
  713SOL     OW 2881   4.248   2.854   1.224
  713SOL    HW2 2882   4.243   2.945   1.194
  713SOL    HW3 2883   4.173   2.811   1.184
  713SOL    MW4 2884   4.238   2.861   1.215
  714SOL     OW 2885   4.288   3.118   1.130
  714SOL    HW2 2886   4.213   3.171   1.156
  714SOL    HW3 2887   4.282   3.112   1.034
  714SOL    MW4 2888   4.278   3.124   1.121
  715SOL     OW 2889   4.044   3.258   1.193
  715SOL    HW2 2890   4.048   3.257   1.289
  715SOL    HW3 2891   3.969   3.201   1.171
  715SOL    MW4 2892   4.034   3.250   1.203
  716SOL     OW 2893   4.033   3.499   1.077
  716SOL    HW2 2894   4.029   3.414   1.120
  716SOL    HW3 2895   3.952   3.543   1.102
  716SOL    MW4 2896   4.022   3.493   1.086
  717SOL     OW 2897   4.239   3.610   1.204
  717SOL    HW2 2898   4.174   3.554   1.160
  717SOL    HW3 2899   4.323   3.572   1.180
  717SOL    MW4 2900   4.241   3.597   1.195
  718SOL     OW 2901   4.306   3.873   1.114
  718SOL    HW2 2902   4.225   3.910   1.148
  718SOL    HW3 2903   4.315   3.789   1.160
  718SOL    MW4 2904   4.296   3.867   1.124
  719SOL     OW 2905   4.066   3.985   1.218
  719SOL    HW2 2906   4.074   4.072   1.181
  719SOL    HW3 2907   3.989   3.947   1.175
  719SOL    MW4 2908   4.057   3.991   1.208
  720SOL     OW 2909   4.039   4.234   1.082
  720SOL    HW2 2910   3.967   4.279   1.125
  720SOL    HW3 2911   4.020   4.240   0.989
  720SOL    MW4 2912   4.027   4.241   1.075
  721SOL     OW 2913   4.273   4.370   1.168
  721SOL    HW2 2914   4.195   4.329   1.131
  721SOL    HW3 2915   4.346   4.332   1.117
  721SOL    MW4 2916   4.273   4.359   1.156
  722SOL     OW 2917   0.249   4.640   1.581
  722SOL    HW2 2918   0.310   4.687   1.524
  722SOL    HW3 2919   0.162   4.665   1.550
  722SOL    MW4 2920   0.246   4.649   1.569
  723SOL     OW 2921   0.009   0.069   1.490
  723SOL    HW2 2922  -0.085   0.056   1.509
  723SOL    HW3 2923   0.012   0.080   1.395
  723SOL    MW4 2924  -0.004   0.069   1.480
  724SOL     OW 2925   4.456   0.349   1.566
  724SOL    HW2 2926   4.459   0.354   1.662
  724SOL    HW3 2927   4.485   0.260   1.546
  724SOL    MW4 2928   4.460   0.338   1.576
  725SOL     OW 2929   0.199   0.469   1.478
  725SOL    HW2 2930   0.111   0.433   1.490
  725SOL    HW3 2931   0.209   0.478   1.384
  725SOL    MW4 2932   0.189   0.466   1.467
  726SOL     OW 2933   0.188   0.742   1.596
  726SOL    HW2 2934   0.246   0.796   1.542
  726SOL    HW3 2935   0.193   0.655   1.558
  726SOL    MW4 2936   0.196   0.738   1.584
  727SOL     OW 2937   4.468   0.861   1.474
  727SOL    HW2 2938   4.472   0.945   1.521
  727SOL    HW3 2939   4.529   0.804   1.522
  727SOL    MW4 2940   4.476   0.865   1.487
  728SOL     OW 2941   4.453   1.116   1.564
  728SOL    HW2 2942   4.469   1.140   1.655
  728SOL    HW3 2943   4.528   1.154   1.517
  728SOL    MW4 2944   4.465   1.124   1.570
  729SOL     OW 2945   0.171   1.234   1.459
  729SOL    HW2 2946   0.170   1.322   1.496
  729SOL    HW3 2947   0.172   1.248   1.364
  729SOL    MW4 2948   0.171   1.247   1.451
  730SOL     OW 2949   0.151   1.503   1.542
  730SOL    HW2 2950   0.157   1.514   1.637
  730SOL    HW3 2951   0.083   1.564   1.515
  730SOL    MW4 2952   0.143   1.512   1.551
  731SOL     OW 2953   4.464   1.692   1.468
  731SOL    HW2 2954   4.485   1.777   1.506
  731SOL    HW3 2955   4.478   1.704   1.374
  731SOL    MW4 2956   4.469   1.705   1.460
  732SOL     OW 2957   0.006   1.954   1.563
  732SOL    HW2 2958  -0.009   1.937   1.656
  732SOL    HW3 2959  -0.075   1.995   1.532
  732SOL    MW4 2960  -0.007   1.957   1.571
  733SOL     OW 2961   0.231   2.113   1.486
  733SOL    HW2 2962   0.147   2.067   1.498
  733SOL    HW3 2963   0.252   2.100   1.393
  733SOL    MW4 2964   0.223   2.105   1.475
  734SOL     OW 2965   0.249   2.390   1.598
  734SOL    HW2 2966   0.244   2.357   1.688
  734SOL    HW3 2967   0.251   2.311   1.544
  734SOL    MW4 2968   0.248   2.375   1.603
  735SOL     OW 2969   0.002   2.444   1.519
  735SOL    HW2 2970  -0.067   2.394   1.563
  735SOL    HW3 2971   0.082   2.421   1.566
  735SOL    MW4 2972   0.003   2.434   1.531
  736SOL     OW 2973   0.018   2.708   1.608
  736SOL    HW2 2974  -0.070   2.735   1.582
  736SOL    HW3 2975   0.029   2.621   1.570
  736SOL    MW4 2976   0.008   2.700   1.599
  737SOL     OW 2977   0.248   2.840   1.469
  737SOL    HW2 2978   0.320   2.809   1.525
  737SOL    HW3 2979   0.173   2.787   1.497
  737SOL    MW4 2980   0.248   2.829   1.480
  738SOL     OW 2981   0.243   3.100   1.591
  738SOL    HW2 2982   0.153   3.114   1.561
  738SOL    HW3 2983   0.271   3.021   1.545
  738SOL    MW4 2984   0.235   3.092   1.581
  739SOL     OW 2985   0.019   3.249   1.486
  739SOL    HW2 2986   0.031   3.339   1.517
  739SOL    HW3 2987   0.032   3.255   1.391
  739SOL    MW4 2988   0.022   3.261   1.477
  740SOL     OW 2989   0.030   3.495   1.588
  740SOL    HW2 2990   0.000   3.495   1.679
  740SOL    HW3 2991  -0.036   3.545   1.541
  740SOL    MW4 2992   0.018   3.502   1.594
  741SOL     OW 2993   0.272   3.656   1.498
  741SOL    HW2 2994   0.256   3.747   1.523
  741SOL    HW3 2995   0.199   3.608   1.538
  741SOL    MW4 2996   0.260   3.661   1.507
  742SOL     OW 2997   0.211   3.922   1.560
  742SOL    HW2 2998   0.220   3.912   1.655
  742SOL    HW3 2999   0.294   3.962   1.533
  742SOL    MW4 3000   0.223   3.926   1.569
  743SOL     OW 3001   4.469   4.052   1.456
  743SOL    HW2 3002   4.475   4.140   1.494
  743SOL    HW3 3003   4.546   4.006   1.489
  743SOL    MW4 3004   4.480   4.058   1.465
  744SOL     OW 3005   4.486   4.293   1.582
  744SOL    HW2 3006   4.489   4.269   1.675
  744SOL    HW3 3007   4.398   4.329   1.570
  744SOL    MW4 3008   4.475   4.295   1.593
  745SOL     OW 3009   0.207   4.428   1.439
  745SOL    HW2 3010   0.139   4.382   1.488
  745SOL    HW3 3011   0.218   4.510   1.486
  745SOL    MW4 3012   0.199   4.432   1.452
  746SOL     OW 3013   0.671   4.653   1.539
  746SOL    HW2 3014   0.743   4.706   1.506
  746SOL    HW3 3015   0.593   4.687   1.494
  746SOL    MW4 3016   0.670   4.664   1.529
  747SOL     OW 3017   0.441   0.113   1.445
  747SOL    HW2 3018   0.427   0.188   1.504
  747SOL    HW3 3019   0.440   0.152   1.357
  747SOL    MW4 3020   0.439   0.128   1.441
  748SOL     OW 3021   0.447   0.372   1.595
  748SOL    HW2 3022   0.522   0.420   1.560
  748SOL    HW3 3023   0.371   0.421   1.564
  748SOL    MW4 3024   0.447   0.385   1.586
  749SOL     OW 3025   0.663   0.509   1.521
  749SOL    HW2 3026   0.674   0.599   1.551
  749SOL    HW3 3027   0.677   0.512   1.427
  749SOL    MW4 3028   0.666   0.521   1.513
  750SOL     OW 3029   0.663   0.766   1.597
  750SOL    HW2 3030   0.678   0.768   1.692
  750SOL    HW3 3031   0.741   0.806   1.559
  750SOL    MW4 3032   0.675   0.772   1.605
  751SOL     OW 3033   0.402   0.866   1.454
  751SOL    HW2 3034   0.401   0.952   1.496
  751SOL    HW3 3035   0.479   0.822   1.491
  751SOL    MW4 3036   0.412   0.871   1.464
  752SOL     OW 3037   0.406   1.108   1.576
  752SOL    HW2 3038   0.481   1.161   1.551
  752SOL    HW3 3039   0.330   1.156   1.544
  752SOL    MW4 3040   0.406   1.121   1.568
  753SOL     OW 3041   0.644   1.260   1.513
  753SOL    HW2 3042   0.638   1.348   1.550
  753SOL    HW3 3043   0.655   1.274   1.419
  753SOL    MW4 3044   0.645   1.273   1.505
  754SOL     OW 3045   0.621   1.527   1.574
  754SOL    HW2 3046   0.696   1.584   1.558
  754SOL    HW3 3047   0.545   1.577   1.544
  754SOL    MW4 3048   0.621   1.541   1.568
  755SOL     OW 3049   0.390   1.656   1.492
  755SOL    HW2 3050   0.371   1.745   1.522
  755SOL    HW3 3051   0.308   1.608   1.507
  755SOL    MW4 3052   0.376   1.661   1.498
  756SOL     OW 3053   0.406   1.938   1.609
  756SOL    HW2 3054   0.410   1.939   1.704
  756SOL    HW3 3055   0.343   2.006   1.587
  756SOL    MW4 3056   0.399   1.947   1.618
  757SOL     OW 3057   0.634   2.069   1.537
  757SOL    HW2 3058   0.698   2.018   1.587
  757SOL    HW3 3059   0.552   2.022   1.548
  757SOL    MW4 3060   0.632   2.056   1.545
  758SOL     OW 3061   0.693   2.321   1.639
  758SOL    HW2 3062   0.625   2.374   1.598
  758SOL    HW3 3063   0.673   2.231   1.611
  758SOL    MW4 3064   0.682   2.316   1.630
  759SOL     OW 3065   0.497   2.492   1.517
  759SOL    HW2 3066   0.512   2.585   1.536
  759SOL    HW3 3067   0.410   2.475   1.553
  759SOL    MW4 3068   0.487   2.502   1.524
  760SOL     OW 3069   0.468   2.754   1.605
  760SOL    HW2 3070   0.478   2.763   1.700
  760SOL    HW3 3071   0.549   2.792   1.570
  760SOL    MW4 3072   0.480   2.760   1.613
  761SOL     OW 3073   0.698   2.846   1.500
  761SOL    HW2 3074   0.721   2.934   1.529
  761SOL    HW3 3075   0.678   2.855   1.407
  761SOL    MW4 3076   0.699   2.859   1.492
  762SOL     OW 3077   0.717   3.116   1.583
  762SOL    HW2 3078   0.792   3.158   1.542
  762SOL    HW3 3079   0.643   3.173   1.562
  762SOL    MW4 3080   0.717   3.129   1.575
  763SOL     OW 3081   0.465   3.255   1.515
  763SOL    HW2 3082   0.380   3.219   1.537
  763SOL    HW3 3083   0.464   3.263   1.420
  763SOL    MW4 3084   0.454   3.251   1.505
  764SOL     OW 3085   0.494   3.515   1.605
  764SOL    HW2 3086   0.482   3.423   1.585
  764SOL    HW3 3087   0.421   3.559   1.561
  764SOL    MW4 3088   0.483   3.509   1.597
  765SOL     OW 3089   0.710   3.676   1.503
  765SOL    HW2 3090   0.782   3.626   1.542
  765SOL    HW3 3091   0.631   3.631   1.534
  765SOL    MW4 3092   0.709   3.663   1.512
  766SOL     OW 3093   0.706   3.930   1.584
  766SOL    HW2 3094   0.790   3.965   1.554
  766SOL    HW3 3095   0.711   3.837   1.564
  766SOL    MW4 3096   0.718   3.922   1.577
  767SOL     OW 3097   0.462   4.003   1.461
  767SOL    HW2 3098   0.545   3.973   1.498
  767SOL    HW3 3099   0.475   3.996   1.366
  767SOL    MW4 3100   0.475   3.998   1.453
  768SOL     OW 3101   0.456   4.288   1.543
  768SOL    HW2 3102   0.436   4.197   1.522
  768SOL    HW3 3103   0.386   4.338   1.500
  768SOL    MW4 3104   0.444   4.283   1.535
  769SOL     OW 3105   0.706   4.395   1.467
  769SOL    HW2 3106   0.622   4.353   1.487
  769SOL    HW3 3107   0.695   4.486   1.495
  769SOL    MW4 3108   0.693   4.402   1.473
  770SOL     OW 3109   1.094   4.664   1.577
  770SOL    HW2 3110   1.086   4.658   1.672
  770SOL    HW3 3111   1.169   4.722   1.563
  770SOL    MW4 3112   1.103   4.671   1.588
  771SOL     OW 3113   0.887   0.144   1.451
  771SOL    HW2 3114   0.876   0.221   1.507
  771SOL    HW3 3115   0.962   0.098   1.489
  771SOL    MW4 3116   0.896   0.148   1.463
  772SOL     OW 3117   0.896   0.400   1.607
  772SOL    HW2 3118   0.907   0.403   1.702
  772SOL    HW3 3119   0.817   0.451   1.590
  772SOL    MW4 3120   0.887   0.407   1.617
  773SOL     OW 3121   1.132   0.508   1.482
  773SOL    HW2 3122   1.126   0.602   1.500
  773SOL    HW3 3123   1.054   0.471   1.523
  773SOL    MW4 3124   1.121   0.516   1.490
  774SOL     OW 3125   1.136   0.785   1.560
  774SOL    HW2 3126   1.147   0.784   1.655
  774SOL    HW3 3127   1.220   0.817   1.526
  774SOL    MW4 3128   1.149   0.789   1.568
  775SOL     OW 3129   0.896   0.890   1.467
  775SOL    HW2 3130   0.974   0.854   1.508
  775SOL    HW3 3131   0.913   0.884   1.373
  775SOL    MW4 3132   0.908   0.885   1.460
  776SOL     OW 3133   0.884   1.138   1.626
  776SOL    HW2 3134   0.899   1.058   1.576
  776SOL    HW3 3135   0.801   1.173   1.593
  776SOL    MW4 3136   0.875   1.132   1.615
  777SOL     OW 3137   1.096   1.267   1.507
  777SOL    HW2 3138   1.176   1.252   1.558
  777SOL    HW3 3139   1.028   1.218   1.554
  777SOL    MW4 3140   1.098   1.258   1.520
  778SOL     OW 3141   1.086   1.531   1.588
  778SOL    HW2 3142   1.170   1.565   1.556
  778SOL    HW3 3143   1.086   1.439   1.561
  778SOL    MW4 3144   1.097   1.523   1.580
  779SOL     OW 3145   0.850   1.685   1.520
  779SOL    HW2 3146   0.925   1.632   1.547
  779SOL    HW3 3147   0.860   1.696   1.426
  779SOL    MW4 3148   0.861   1.680   1.511
  780SOL     OW 3149   0.836   1.930   1.638
  780SOL    HW2 3150   0.901   1.990   1.601
  780SOL    HW3 3151   0.851   1.847   1.593
  780SOL    MW4 3152   0.846   1.927   1.627
  781SOL     OW 3153   1.045   2.097   1.550
  781SOL    HW2 3154   1.130   2.056   1.536
  781SOL    HW3 3155   1.066   2.180   1.593
  781SOL    MW4 3156   1.059   2.103   1.554
  782SOL     OW 3157   1.106   2.348   1.660
  782SOL    HW2 3158   1.192   2.378   1.629
  782SOL    HW3 3159   1.043   2.395   1.605
  782SOL    MW4 3160   1.109   2.358   1.648
  783SOL     OW 3161   0.900   2.451   1.500
  783SOL    HW2 3162   0.894   2.543   1.526
  783SOL    HW3 3163   0.843   2.406   1.561
  783SOL    MW4 3164   0.892   2.457   1.512
  784SOL     OW 3165   0.927   2.742   1.594
  784SOL    HW2 3166   0.907   2.751   1.688
  784SOL    HW3 3167   0.851   2.780   1.550
  784SOL    MW4 3168   0.914   2.748   1.601
  785SOL     OW 3169   1.154   2.891   1.517
  785SOL    HW2 3170   1.152   2.972   1.568
  785SOL    HW3 3171   1.086   2.836   1.557
  785SOL    MW4 3172   1.145   2.895   1.529
  786SOL     OW 3173   1.139   3.126   1.630
  786SOL    HW2 3174   1.139   3.135   1.725
  786SOL    HW3 3175   1.209   3.185   1.600
  786SOL    MW4 3176   1.148   3.135   1.638
  787SOL     OW 3177   0.934   3.260   1.483
  787SOL    HW2 3178   1.011   3.215   1.519
  787SOL    HW3 3179   0.935   3.237   1.390
  787SOL    MW4 3180   0.944   3.251   1.476
  788SOL     OW 3181   0.895   3.519   1.623
  788SOL    HW2 3182   0.968   3.573   1.590
  788SOL    HW3 3183   0.910   3.432   1.585
  788SOL    MW4 3184   0.907   3.515   1.614
  789SOL     OW 3185   1.101   3.665   1.508
  789SOL    HW2 3186   1.178   3.613   1.530
  789SOL    HW3 3187   1.101   3.668   1.412
  789SOL    MW4 3188   1.112   3.659   1.498
  790SOL     OW 3189   1.135   3.905   1.647
  790SOL    HW2 3190   1.215   3.937   1.603
  790SOL    HW3 3191   1.120   3.818   1.609
  790SOL    MW4 3192   1.144   3.898   1.636
  791SOL     OW 3193   0.949   4.014   1.480
  791SOL    HW2 3194   0.940   4.095   1.530
  791SOL    HW3 3195   1.013   3.962   1.529
  791SOL    MW4 3196   0.956   4.018   1.493
  792SOL     OW 3197   0.902   4.252   1.604
  792SOL    HW2 3198   0.889   4.268   1.697
  792SOL    HW3 3199   0.824   4.289   1.562
  792SOL    MW4 3200   0.890   4.259   1.610
  793SOL     OW 3201   1.116   4.382   1.501
  793SOL    HW2 3202   1.039   4.337   1.537
  793SOL    HW3 3203   1.110   4.471   1.537
  793SOL    MW4 3204   1.105   4.388   1.511
  794SOL     OW 3205   1.553   4.667   1.588
  794SOL    HW2 3206   1.543   4.669   1.683
  794SOL    HW3 3207   1.474   4.707   1.554
  794SOL    MW4 3208   1.541   4.672   1.596
  795SOL     OW 3209   1.318   0.153   1.533
  795SOL    HW2 3210   1.337   0.237   1.574
  795SOL    HW3 3211   1.332   0.169   1.439
  795SOL    MW4 3212   1.322   0.166   1.526
  796SOL     OW 3213   1.339   0.409   1.624
  796SOL    HW2 3214   1.416   0.466   1.612
  796SOL    HW3 3215   1.273   0.445   1.565
  796SOL    MW4 3216   1.341   0.421   1.615
  797SOL     OW 3217   1.566   0.574   1.551
  797SOL    HW2 3218   1.634   0.522   1.596
  797SOL    HW3 3219   1.568   0.543   1.461
  797SOL    MW4 3220   1.575   0.563   1.545
  798SOL     OW 3221   1.566   0.847   1.639
  798SOL    HW2 3222   1.549   0.833   1.732
  798SOL    HW3 3223   1.567   0.758   1.602
  798SOL    MW4 3224   1.564   0.833   1.647
  799SOL     OW 3225   1.361   0.929   1.478
  799SOL    HW2 3226   1.450   0.908   1.509
  799SOL    HW3 3227   1.367   0.925   1.383
  799SOL    MW4 3228   1.374   0.926   1.470
  800SOL     OW 3229   1.360   1.212   1.587
  800SOL    HW2 3230   1.362   1.196   1.682
  800SOL    HW3 3231   1.368   1.126   1.548
  800SOL    MW4 3232   1.361   1.199   1.594
  801SOL     OW 3233   1.556   1.375   1.466
  801SOL    HW2 3234   1.489   1.316   1.501
  801SOL    HW3 3235   1.560   1.355   1.373
  801SOL    MW4 3236   1.548   1.365   1.459
  802SOL     OW 3237   1.577   1.615   1.589
  802SOL    HW2 3238   1.565   1.595   1.681
  802SOL    HW3 3239   1.573   1.530   1.545
  802SOL    MW4 3240   1.575   1.601   1.595
  803SOL     OW 3241   1.302   1.697   1.517
  803SOL    HW2 3242   1.392   1.677   1.542
  803SOL    HW3 3243   1.305   1.706   1.421
  803SOL    MW4 3244   1.314   1.695   1.507
  804SOL     OW 3245   1.307   1.980   1.582
  804SOL    HW2 3246   1.329   1.982   1.675
  804SOL    HW3 3247   1.300   1.887   1.561
  804SOL    MW4 3248   1.309   1.968   1.592
  805SOL     OW 3249   1.556   2.069   1.502
  805SOL    HW2 3250   1.476   2.018   1.517
  805SOL    HW3 3251   1.545   2.106   1.414
  805SOL    MW4 3252   1.544   2.067   1.492
  806SOL     OW 3253   1.514   2.344   1.579
  806SOL    HW2 3254   1.585   2.390   1.533
  806SOL    HW3 3255   1.527   2.252   1.556
  806SOL    MW4 3256   1.525   2.338   1.570
  807SOL     OW 3257   1.302   2.466   1.490
  807SOL    HW2 3258   1.331   2.551   1.524
  807SOL    HW3 3259   1.366   2.403   1.525
  807SOL    MW4 3260   1.314   2.469   1.499
  808SOL     OW 3261   1.374   2.737   1.584
  808SOL    HW2 3262   1.454   2.771   1.543
  808SOL    HW3 3263   1.308   2.804   1.565
  808SOL    MW4 3264   1.376   2.750   1.576
  809SOL     OW 3265   1.592   2.874   1.475
  809SOL    HW2 3266   1.669   2.831   1.513
  809SOL    HW3 3267   1.606   2.868   1.380
  809SOL    MW4 3268   1.604   2.868   1.467
  810SOL     OW 3269   1.549   3.134   1.598
  810SOL    HW2 3270   1.620   3.181   1.555
  810SOL    HW3 3271   1.552   3.046   1.560
  810SOL    MW4 3272   1.559   3.129   1.587
  811SOL     OW 3273   1.335   3.279   1.496
  811SOL    HW2 3274   1.336   3.373   1.515
  811SOL    HW3 3275   1.408   3.244   1.547
  811SOL    MW4 3276   1.345   3.287   1.505
  812SOL     OW 3277   1.328   3.530   1.591
  812SOL    HW2 3278   1.337   3.532   1.686
  812SOL    HW3 3279   1.408   3.571   1.558
  812SOL    MW4 3280   1.340   3.535   1.599
  813SOL     OW 3281   1.564   3.638   1.474
  813SOL    HW2 3282   1.583   3.724   1.509
  813SOL    HW3 3283   1.574   3.647   1.379
  813SOL    MW4 3284   1.568   3.650   1.466
  814SOL     OW 3285   1.606   3.893   1.598
  814SOL    HW2 3286   1.604   3.893   1.693
  814SOL    HW3 3287   1.523   3.932   1.572
  814SOL    MW4 3288   1.595   3.898   1.607
  815SOL     OW 3289   1.357   3.991   1.522
  815SOL    HW2 3290   1.350   4.068   1.578
  815SOL    HW3 3291   1.365   4.026   1.433
  815SOL    MW4 3292   1.357   4.006   1.517
  816SOL     OW 3293   1.332   4.249   1.628
  816SOL    HW2 3294   1.404   4.310   1.609
  816SOL    HW3 3295   1.255   4.289   1.589
  816SOL    MW4 3296   1.331   4.262   1.620
  817SOL     OW 3297   1.577   4.398   1.519
  817SOL    HW2 3298   1.663   4.365   1.543
  817SOL    HW3 3299   1.569   4.481   1.566
  817SOL    MW4 3300   1.587   4.405   1.529
  818SOL     OW 3301   2.004   0.017   1.600
  818SOL    HW2 3302   1.985  -0.006   1.691
  818SOL    HW3 3303   1.929   0.070   1.573
  818SOL    MW4 3304   1.991   0.021   1.608
  819SOL     OW 3305   1.780   0.131   1.505
  819SOL    HW2 3306   1.701   0.087   1.536
  819SOL    HW3 3307   1.766   0.143   1.411
  819SOL    MW4 3308   1.768   0.127   1.497
  820SOL     OW 3309   1.791   0.408   1.643
  820SOL    HW2 3310   1.866   0.449   1.601
  820SOL    HW3 3311   1.787   0.320   1.607
  820SOL    MW4 3312   1.800   0.402   1.633
  821SOL     OW 3313   2.017   0.539   1.509
  821SOL    HW2 3314   2.098   0.512   1.552
  821SOL    HW3 3315   2.004   0.630   1.537
  821SOL    MW4 3316   2.026   0.548   1.518
  822SOL     OW 3317   2.011   0.808   1.553
  822SOL    HW2 3318   2.095   0.843   1.523
  822SOL    HW3 3319   1.948   0.876   1.529
  822SOL    MW4 3320   2.014   0.822   1.546
  823SOL     OW 3321   1.776   0.933   1.485
  823SOL    HW2 3322   1.768   1.028   1.476
  823SOL    HW3 3323   1.711   0.909   1.551
  823SOL    MW4 3324   1.767   0.943   1.493
  824SOL     OW 3325   1.757   1.229   1.607
  824SOL    HW2 3326   1.838   1.268   1.575
  824SOL    HW3 3327   1.688   1.285   1.573
  824SOL    MW4 3328   1.759   1.241   1.598
  825SOL     OW 3329   2.021   1.278   1.532
  825SOL    HW2 3330   2.050   1.367   1.554
  825SOL    HW3 3331   2.030   1.273   1.437
  825SOL    MW4 3332   2.026   1.289   1.522
  826SOL     OW 3333   2.061   1.533   1.644
  826SOL    HW2 3334   2.129   1.582   1.598
  826SOL    HW3 3335   1.979   1.578   1.621
  826SOL    MW4 3336   2.059   1.545   1.635
  827SOL     OW 3337   1.841   1.683   1.530
  827SOL    HW2 3338   1.751   1.666   1.556
  827SOL    HW3 3339   1.841   1.673   1.435
  827SOL    MW4 3340   1.829   1.680   1.521
  828SOL     OW 3341   1.787   1.966   1.602
  828SOL    HW2 3342   1.798   1.880   1.562
  828SOL    HW3 3343   1.706   2.001   1.564
  828SOL    MW4 3344   1.778   1.959   1.592
  829SOL     OW 3345   2.022   2.088   1.503
  829SOL    HW2 3346   2.087   2.034   1.548
  829SOL    HW3 3347   1.938   2.050   1.527
  829SOL    MW4 3348   2.019   2.076   1.512
  830SOL     OW 3349   1.968   2.339   1.611
  830SOL    HW2 3350   2.000   2.340   1.701
  830SOL    HW3 3351   1.983   2.249   1.581
  830SOL    MW4 3352   1.974   2.327   1.619
  831SOL     OW 3353   1.748   2.480   1.488
  831SOL    HW2 3354   1.821   2.426   1.518
  831SOL    HW3 3355   1.754   2.477   1.392
  831SOL    MW4 3356   1.759   2.473   1.479
  832SOL     OW 3357   1.787   2.732   1.599
  832SOL    HW2 3358   1.873   2.758   1.564
  832SOL    HW3 3359   1.777   2.641   1.570
  832SOL    MW4 3360   1.797   2.723   1.591
  833SOL     OW 3361   2.033   2.797   1.515
  833SOL    HW2 3362   2.031   2.890   1.538
  833SOL    HW3 3363   2.050   2.797   1.420
  833SOL    MW4 3364   2.035   2.810   1.505
  834SOL     OW 3365   1.996   3.054   1.604
  834SOL    HW2 3366   2.013   3.075   1.695
  834SOL    HW3 3367   2.066   3.097   1.555
  834SOL    MW4 3368   2.007   3.063   1.609
  835SOL     OW 3369   1.789   3.234   1.488
  835SOL    HW2 3370   1.822   3.309   1.538
  835SOL    HW3 3371   1.843   3.160   1.517
  835SOL    MW4 3372   1.801   3.234   1.499
  836SOL     OW 3373   1.802   3.502   1.588
  836SOL    HW2 3374   1.780   3.531   1.676
  836SOL    HW3 3375   1.742   3.551   1.531
  836SOL    MW4 3376   1.791   3.512   1.592
  837SOL     OW 3377   2.054   3.623   1.555
  837SOL    HW2 3378   2.124   3.567   1.588
  837SOL    HW3 3379   1.974   3.574   1.571
  837SOL    MW4 3380   2.053   3.609   1.562
  838SOL     OW 3381   2.032   3.897   1.608
  838SOL    HW2 3382   2.109   3.949   1.586
  838SOL    HW3 3383   2.050   3.810   1.571
  838SOL    MW4 3384   2.044   3.892   1.600
  839SOL     OW 3385   1.826   4.033   1.499
  839SOL    HW2 3386   1.906   3.994   1.533
  839SOL    HW3 3387   1.756   3.980   1.537
  839SOL    MW4 3388   1.827   4.021   1.509
  840SOL     OW 3389   1.819   4.290   1.597
  840SOL    HW2 3390   1.888   4.338   1.550
  840SOL    HW3 3391   1.811   4.207   1.550
  840SOL    MW4 3392   1.827   4.286   1.584
  841SOL     OW 3393   2.019   4.442   1.479
  841SOL    HW2 3394   2.095   4.394   1.514
  841SOL    HW3 3395   2.027   4.529   1.516
  841SOL    MW4 3396   2.030   4.447   1.488
  842SOL     OW 3397   2.450   4.657   1.568
  842SOL    HW2 3398   2.436   4.654   1.663
  842SOL    HW3 3399   2.366   4.689   1.533
  842SOL    MW4 3400   2.437   4.661   1.576
  843SOL     OW 3401   2.207   0.144   1.474
  843SOL    HW2 3402   2.134   0.094   1.509
  843SOL    HW3 3403   2.203   0.130   1.379
  843SOL    MW4 3404   2.197   0.136   1.466
  844SOL     OW 3405   2.262   0.403   1.586
  844SOL    HW2 3406   2.252   0.393   1.681
  844SOL    HW3 3407   2.247   0.315   1.551
  844SOL    MW4 3408   2.259   0.390   1.594
  845SOL     OW 3409   2.508   0.482   1.491
  845SOL    HW2 3410   2.572   0.428   1.536
  845SOL    HW3 3411   2.423   0.453   1.524
  845SOL    MW4 3412   2.505   0.471   1.501
  846SOL     OW 3413   2.480   0.723   1.619
  846SOL    HW2 3414   2.393   0.758   1.601
  846SOL    HW3 3415   2.478   0.634   1.583
  846SOL    MW4 3416   2.468   0.716   1.612
  847SOL     OW 3417   2.271   0.886   1.489
  847SOL    HW2 3418   2.283   0.976   1.522
  847SOL    HW3 3419   2.278   0.895   1.394
  847SOL    MW4 3420   2.273   0.899   1.481
  848SOL     OW 3421   2.261   1.165   1.603
  848SOL    HW2 3422   2.267   1.160   1.698
  848SOL    HW3 3423   2.180   1.214   1.587
  848SOL    MW4 3424   2.251   1.171   1.613
  849SOL     OW 3425   2.496   1.307   1.499
  849SOL    HW2 3426   2.408   1.283   1.529
  849SOL    HW3 3427   2.505   1.262   1.415
  849SOL    MW4 3428   2.485   1.298   1.492
  850SOL     OW 3429   2.513   1.566   1.615
  850SOL    HW2 3430   2.593   1.604   1.578
  850SOL    HW3 3431   2.518   1.473   1.591
  850SOL    MW4 3432   2.524   1.558   1.607
  851SOL     OW 3433   2.264   1.692   1.526
  851SOL    HW2 3434   2.351   1.663   1.555
  851SOL    HW3 3435   2.270   1.693   1.431
  851SOL    MW4 3436   2.276   1.688   1.517
  852SOL     OW 3437   2.225   1.947   1.615
  852SOL    HW2 3438   2.238   1.953   1.710
  852SOL    HW3 3439   2.233   1.854   1.596
  852SOL    MW4 3440   2.227   1.935   1.625
  853SOL     OW 3441   2.449   2.047   1.485
  853SOL    HW2 3442   2.369   2.010   1.522
  853SOL    HW3 3443   2.431   2.055   1.391
  853SOL    MW4 3444   2.436   2.043   1.477
  854SOL     OW 3445   2.459   2.315   1.601
  854SOL    HW2 3446   2.463   2.315   1.696
  854SOL    HW3 3447   2.439   2.225   1.577
  854SOL    MW4 3448   2.457   2.303   1.610
  855SOL     OW 3449   2.199   2.421   1.503
  855SOL    HW2 3450   2.275   2.376   1.540
  855SOL    HW3 3451   2.124   2.374   1.539
  855SOL    MW4 3452   2.199   2.409   1.512
  856SOL     OW 3453   2.256   2.681   1.640
  856SOL    HW2 3454   2.255   2.591   1.606
  856SOL    HW3 3455   2.172   2.718   1.613
  856SOL    MW4 3456   2.245   2.674   1.632
  857SOL     OW 3457   2.441   2.842   1.526
  857SOL    HW2 3458   2.440   2.921   1.579
  857SOL    HW3 3459   2.369   2.789   1.560
  857SOL    MW4 3460   2.431   2.845   1.537
  858SOL     OW 3461   2.426   3.097   1.626
  858SOL    HW2 3462   2.495   3.147   1.583
  858SOL    HW3 3463   2.345   3.138   1.596
  858SOL    MW4 3464   2.424   3.109   1.616
  859SOL     OW 3465   2.204   3.201   1.491
  859SOL    HW2 3466   2.232   3.287   1.524
  859SOL    HW3 3467   2.235   3.199   1.400
  859SOL    MW4 3468   2.212   3.212   1.483
  860SOL     OW 3469   2.283   3.457   1.588
  860SOL    HW2 3470   2.310   3.450   1.680
  860SOL    HW3 3471   2.347   3.516   1.548
  860SOL    MW4 3472   2.295   3.464   1.595
  861SOL     OW 3473   2.503   3.619   1.494
  861SOL    HW2 3474   2.569   3.568   1.541
  861SOL    HW3 3475   2.504   3.704   1.537
  861SOL    MW4 3476   2.512   3.623   1.506
  862SOL     OW 3477   2.489   3.880   1.611
  862SOL    HW2 3478   2.489   3.889   1.706
  862SOL    HW3 3479   2.572   3.918   1.583
  862SOL    MW4 3480   2.500   3.886   1.620
  863SOL     OW 3481   2.262   4.024   1.505
  863SOL    HW2 3482   2.332   3.975   1.547
  863SOL    HW3 3483   2.275   4.010   1.411
  863SOL    MW4 3484   2.273   4.016   1.498
  864SOL     OW 3485   2.243   4.300   1.557
  864SOL    HW2 3486   2.332   4.328   1.536
  864SOL    HW3 3487   2.240   4.207   1.534
  864SOL    MW4 3488   2.254   4.291   1.551
  865SOL     OW 3489   2.492   4.403   1.485
  865SOL    HW2 3490   2.480   4.493   1.518
  865SOL    HW3 3491   2.491   4.412   1.390
  865SOL    MW4 3492   2.490   4.416   1.477
  866SOL     OW 3493   2.896   0.003   1.569
  866SOL    HW2 3494   2.892  -0.006   1.664
  866SOL    HW3 3495   2.811   0.042   1.545
  866SOL    MW4 3496   2.884   0.007   1.578
  867SOL     OW 3497   2.668   0.134   1.481
  867SOL    HW2 3498   2.690   0.218   1.521
  867SOL    HW3 3499   2.594   0.102   1.533
  867SOL    MW4 3500   2.661   0.141   1.493
  868SOL     OW 3501   2.717   0.357   1.646
  868SOL    HW2 3502   2.692   0.360   1.738
  868SOL    HW3 3503   2.800   0.406   1.641
  868SOL    MW4 3504   2.725   0.364   1.657
  869SOL     OW 3505   2.935   0.500   1.545
  869SOL    HW2 3506   2.934   0.592   1.571
  869SOL    HW3 3507   2.908   0.501   1.453
  869SOL    MW4 3508   2.931   0.512   1.536
  870SOL     OW 3509   2.909   0.763   1.587
  870SOL    HW2 3510   2.901   0.777   1.681
  870SOL    HW3 3511   2.827   0.797   1.550
  870SOL    MW4 3512   2.897   0.769   1.594
  871SOL     OW 3513   2.685   0.863   1.468
  871SOL    HW2 3514   2.608   0.820   1.504
  871SOL    HW3 3515   2.674   0.855   1.373
  871SOL    MW4 3516   2.673   0.856   1.460
  872SOL     OW 3517   2.696   1.125   1.572
  872SOL    HW2 3518   2.684   1.036   1.541
  872SOL    HW3 3519   2.616   1.171   1.547
  872SOL    MW4 3520   2.684   1.119   1.565
  873SOL     OW 3521   2.927   1.268   1.496
  873SOL    HW2 3522   2.999   1.217   1.533
  873SOL    HW3 3523   2.850   1.214   1.511
  873SOL    MW4 3524   2.927   1.254   1.503
  874SOL     OW 3525   2.968   1.503   1.637
  874SOL    HW2 3526   2.888   1.540   1.599
  874SOL    HW3 3527   2.978   1.418   1.594
  874SOL    MW4 3528   2.959   1.497   1.626
  875SOL     OW 3529   2.769   1.640   1.505
  875SOL    HW2 3530   2.769   1.731   1.533
  875SOL    HW3 3531   2.755   1.643   1.410
  875SOL    MW4 3532   2.767   1.652   1.496
  876SOL     OW 3533   2.737   1.911   1.573
  876SOL    HW2 3534   2.723   1.919   1.667
  876SOL    HW3 3535   2.656   1.946   1.534
  876SOL    MW4 3536   2.724   1.917   1.580
  877SOL     OW 3537   2.935   2.073   1.481
  877SOL    HW2 3538   2.921   2.164   1.507
  877SOL    HW3 3539   2.858   2.027   1.512
  877SOL    MW4 3540   2.923   2.079   1.488
  878SOL     OW 3541   2.910   2.315   1.631
  878SOL    HW2 3542   2.910   2.337   1.724
  878SOL    HW3 3543   2.835   2.362   1.595
  878SOL    MW4 3544   2.900   2.324   1.638
  879SOL     OW 3545   2.686   2.452   1.535
  879SOL    HW2 3546   2.680   2.544   1.560
  879SOL    HW3 3547   2.596   2.418   1.545
  879SOL    MW4 3548   2.673   2.460   1.540
  880SOL     OW 3549   2.684   2.716   1.591
  880SOL    HW2 3550   2.758   2.760   1.550
  880SOL    HW3 3551   2.607   2.765   1.561
  880SOL    MW4 3552   2.683   2.728   1.582
  881SOL     OW 3553   2.897   2.842   1.501
  881SOL    HW2 3554   2.968   2.780   1.518
  881SOL    HW3 3555   2.930   2.926   1.535
  881SOL    MW4 3556   2.911   2.845   1.508
  882SOL     OW 3557   2.914   3.094   1.603
  882SOL    HW2 3558   2.932   3.079   1.696
  882SOL    HW3 3559   3.001   3.097   1.562
  882SOL    MW4 3560   2.928   3.092   1.610
  883SOL     OW 3561   2.652   3.200   1.498
  883SOL    HW2 3562   2.734   3.156   1.520
  883SOL    HW3 3563   2.652   3.203   1.402
  883SOL    MW4 3564   2.663   3.194   1.488
  884SOL     OW 3565   2.711   3.462   1.596
  884SOL    HW2 3566   2.744   3.470   1.685
  884SOL    HW3 3567   2.700   3.368   1.584
  884SOL    MW4 3568   2.714   3.451   1.606
  885SOL     OW 3569   2.925   3.573   1.458
  885SOL    HW2 3570   2.851   3.521   1.490
  885SOL    HW3 3571   2.910   3.579   1.364
  885SOL    MW4 3572   2.913   3.567   1.450
  886SOL     OW 3573   2.956   3.826   1.559
  886SOL    HW2 3574   2.878   3.874   1.530
  886SOL    HW3 3575   2.951   3.742   1.514
  886SOL    MW4 3576   2.945   3.821   1.549
  887SOL     OW 3577   2.727   3.973   1.485
  887SOL    HW2 3578   2.717   4.064   1.513
  887SOL    HW3 3579   2.729   3.977   1.390
  887SOL    MW4 3580   2.726   3.985   1.476
  888SOL     OW 3581   2.709   4.232   1.573
  888SOL    HW2 3582   2.784   4.287   1.553
  888SOL    HW3 3583   2.633   4.286   1.553
  888SOL    MW4 3584   2.709   4.246   1.568
  889SOL     OW 3585   2.932   4.401   1.472
  889SOL    HW2 3586   2.920   4.491   1.502
  889SOL    HW3 3587   2.925   4.407   1.376
  889SOL    MW4 3588   2.929   4.414   1.463
  890SOL     OW 3589   3.348   4.636   1.533
  890SOL    HW2 3590   3.432   4.678   1.521
  890SOL    HW3 3591   3.363   4.544   1.509
  890SOL    MW4 3592   3.361   4.629   1.528
  891SOL     OW 3593   3.140   0.113   1.426
  891SOL    HW2 3594   3.218   0.071   1.462
  891SOL    HW3 3595   3.068   0.075   1.475
  891SOL    MW4 3596   3.141   0.103   1.437
  892SOL     OW 3597   3.158   0.354   1.565
  892SOL    HW2 3598   3.138   0.277   1.512
  892SOL    HW3 3599   3.076   0.403   1.568
  892SOL    MW4 3600   3.145   0.350   1.559
  893SOL     OW 3601   3.385   0.511   1.489
  893SOL    HW2 3602   3.304   0.462   1.500
  893SOL    HW3 3603   3.392   0.524   1.394
  893SOL    MW4 3604   3.376   0.506   1.478
  894SOL     OW 3605   3.362   0.757   1.622
  894SOL    HW2 3606   3.361   0.748   1.717
  894SOL    HW3 3607   3.372   0.668   1.589
  894SOL    MW4 3608   3.363   0.744   1.630
  895SOL     OW 3609   3.141   0.873   1.505
  895SOL    HW2 3610   3.215   0.837   1.554
  895SOL    HW3 3611   3.064   0.838   1.550
  895SOL    MW4 3612   3.140   0.863   1.518
  896SOL     OW 3613   3.151   1.143   1.602
  896SOL    HW2 3614   3.154   1.134   1.697
  896SOL    HW3 3615   3.154   1.052   1.570
  896SOL    MW4 3616   3.152   1.130   1.610
  897SOL     OW 3617   3.350   1.263   1.444
  897SOL    HW2 3618   3.431   1.228   1.481
  897SOL    HW3 3619   3.281   1.224   1.496
  897SOL    MW4 3620   3.352   1.253   1.455
  898SOL     OW 3621   3.372   1.533   1.560
  898SOL    HW2 3622   3.368   1.510   1.653
  898SOL    HW3 3623   3.369   1.450   1.514
  898SOL    MW4 3624   3.371   1.519   1.566
  899SOL     OW 3625   3.141   1.677   1.495
  899SOL    HW2 3626   3.221   1.637   1.529
  899SOL    HW3 3627   3.070   1.637   1.546
  899SOL    MW4 3628   3.142   1.666   1.506
  900SOL     OW 3629   3.131   1.922   1.611
  900SOL    HW2 3630   3.140   1.835   1.572
  900SOL    HW3 3631   3.053   1.960   1.571
  900SOL    MW4 3632   3.122   1.916   1.601
  901SOL     OW 3633   3.383   2.035   1.515
  901SOL    HW2 3634   3.301   2.004   1.554
  901SOL    HW3 3635   3.371   2.022   1.421
  901SOL    MW4 3636   3.370   2.029   1.507
  902SOL     OW 3637   3.393   2.305   1.623
  902SOL    HW2 3638   3.449   2.365   1.574
  902SOL    HW3 3639   3.389   2.226   1.569
  902SOL    MW4 3640   3.400   2.302   1.610
  903SOL     OW 3641   3.159   2.438   1.542
  903SOL    HW2 3642   3.236   2.392   1.576
  903SOL    HW3 3643   3.085   2.387   1.575
  903SOL    MW4 3644   3.159   2.425   1.551
  904SOL     OW 3645   3.109   2.697   1.607
  904SOL    HW2 3646   3.198   2.718   1.578
  904SOL    HW3 3647   3.104   2.602   1.602
  904SOL    MW4 3648   3.120   2.687   1.603
  905SOL     OW 3649   3.358   2.800   1.510
  905SOL    HW2 3650   3.357   2.892   1.538
  905SOL    HW3 3651   3.352   2.804   1.414
  905SOL    MW4 3652   3.357   2.813   1.501
  906SOL     OW 3653   3.381   3.048   1.598
  906SOL    HW2 3654   3.383   3.053   1.694
  906SOL    HW3 3655   3.463   3.090   1.570
  906SOL    MW4 3656   3.392   3.054   1.607
  907SOL     OW 3657   3.158   3.161   1.472
  907SOL    HW2 3658   3.241   3.117   1.489
  907SOL    HW3 3659   3.161   3.182   1.378
  907SOL    MW4 3660   3.169   3.158   1.462
  908SOL     OW 3661   3.151   3.438   1.552
  908SOL    HW2 3662   3.137   3.343   1.556
  908SOL    HW3 3663   3.071   3.473   1.512
  908SOL    MW4 3664   3.139   3.430   1.547
  909SOL     OW 3665   3.391   3.583   1.509
  909SOL    HW2 3666   3.466   3.536   1.545
  909SOL    HW3 3667   3.316   3.526   1.528
  909SOL    MW4 3668   3.391   3.569   1.516
  910SOL     OW 3669   3.417   3.851   1.602
  910SOL    HW2 3670   3.336   3.902   1.599
  910SOL    HW3 3671   3.394   3.767   1.562
  910SOL    MW4 3672   3.403   3.847   1.596
  911SOL     OW 3673   3.203   3.991   1.543
  911SOL    HW2 3674   3.178   4.083   1.538
  911SOL    HW3 3675   3.120   3.944   1.536
  911SOL    MW4 3676   3.188   3.997   1.542
  912SOL     OW 3677   3.164   4.275   1.540
  912SOL    HW2 3678   3.164   4.254   1.633
  912SOL    HW3 3679   3.082   4.323   1.526
  912SOL    MW4 3680   3.153   4.279   1.550
  913SOL     OW 3681   3.406   4.374   1.466
  913SOL    HW2 3682   3.320   4.338   1.487
  913SOL    HW3 3683   3.403   4.391   1.372
  913SOL    MW4 3684   3.394   4.371   1.456
  914SOL     OW 3685   3.834   4.611   1.558
  914SOL    HW2 3686   3.837   4.618   1.653
  914SOL    HW3 3687   3.903   4.670   1.528
  914SOL    MW4 3688   3.843   4.620   1.567
  915SOL     OW 3689   3.588   0.100   1.493
  915SOL    HW2 3690   3.668   0.054   1.516
  915SOL    HW3 3691   3.600   0.124   1.401
  915SOL    MW4 3692   3.600   0.097   1.484
  916SOL     OW 3693   3.588   0.354   1.600
  916SOL    HW2 3694   3.594   0.262   1.575
  916SOL    HW3 3695   3.512   0.388   1.554
  916SOL    MW4 3696   3.579   0.346   1.591
  917SOL     OW 3697   3.775   0.533   1.470
  917SOL    HW2 3698   3.702   0.479   1.500
  917SOL    HW3 3699   3.789   0.508   1.379
  917SOL    MW4 3700   3.767   0.523   1.462
  918SOL     OW 3701   3.816   0.803   1.556
  918SOL    HW2 3702   3.738   0.844   1.517
  918SOL    HW3 3703   3.817   0.715   1.521
  918SOL    MW4 3704   3.805   0.797   1.547
  919SOL     OW 3705   3.563   0.917   1.489
  919SOL    HW2 3706   3.497   0.858   1.525
  919SOL    HW3 3707   3.556   0.906   1.395
  919SOL    MW4 3708   3.554   0.907   1.482
  920SOL     OW 3709   3.555   1.178   1.580
  920SOL    HW2 3710   3.637   1.211   1.543
  920SOL    HW3 3711   3.559   1.083   1.567
  920SOL    MW4 3712   3.566   1.170   1.573
  921SOL     OW 3713   3.786   1.267   1.463
  921SOL    HW2 3714   3.856   1.234   1.519
  921SOL    HW3 3715   3.777   1.359   1.488
  921SOL    MW4 3716   3.794   1.275   1.474
  922SOL     OW 3717   3.768   1.522   1.563
  922SOL    HW2 3718   3.742   1.504   1.653
  922SOL    HW3 3719   3.702   1.584   1.531
  922SOL    MW4 3720   3.756   1.528   1.570
  923SOL     OW 3721   3.585   1.666   1.443
  923SOL    HW2 3722   3.505   1.620   1.469
  923SOL    HW3 3723   3.578   1.675   1.348
  923SOL    MW4 3724   3.574   1.661   1.434
  924SOL     OW 3725   3.616   1.915   1.576
  924SOL    HW2 3726   3.601   1.833   1.529
  924SOL    HW3 3727   3.535   1.965   1.564
  924SOL    MW4 3728   3.603   1.911   1.568
  925SOL     OW 3729   3.841   2.039   1.453
  925SOL    HW2 3730   3.846   2.128   1.489
  925SOL    HW3 3731   3.757   2.005   1.484
  925SOL    MW4 3732   3.831   2.046   1.462
  926SOL     OW 3733   3.804   2.299   1.541
  926SOL    HW2 3734   3.819   2.295   1.635
  926SOL    HW3 3735   3.867   2.362   1.508
  926SOL    MW4 3736   3.814   2.306   1.549
  927SOL     OW 3737   3.584   2.433   1.459
  927SOL    HW2 3738   3.596   2.519   1.500
  927SOL    HW3 3739   3.665   2.385   1.480
  927SOL    MW4 3740   3.596   2.438   1.468
  928SOL     OW 3741   3.588   2.681   1.565
  928SOL    HW2 3742   3.588   2.697   1.660
  928SOL    HW3 3743   3.509   2.724   1.533
  928SOL    MW4 3744   3.578   2.688   1.574
  929SOL     OW 3745   3.792   2.846   1.472
  929SOL    HW2 3746   3.870   2.800   1.503
  929SOL    HW3 3747   3.719   2.800   1.513
  929SOL    MW4 3748   3.793   2.834   1.481
  930SOL     OW 3749   3.857   3.087   1.580
  930SOL    HW2 3750   3.940   3.110   1.540
  930SOL    HW3 3751   3.835   3.002   1.543
  930SOL    MW4 3752   3.865   3.079   1.570
  931SOL     OW 3753   3.610   3.184   1.545
  931SOL    HW2 3754   3.694   3.142   1.566
  931SOL    HW3 3755   3.616   3.206   1.453
  931SOL    MW4 3756   3.622   3.181   1.536
  932SOL     OW 3757   3.612   3.472   1.629
  932SOL    HW2 3758   3.690   3.513   1.592
  932SOL    HW3 3759   3.622   3.379   1.608
  932SOL    MW4 3760   3.623   3.465   1.621
  933SOL     OW 3761   3.847   3.562   1.475
  933SOL    HW2 3762   3.935   3.547   1.509
  933SOL    HW3 3763   3.827   3.652   1.500
  933SOL    MW4 3764   3.856   3.572   1.483
  934SOL     OW 3765   3.813   3.842   1.522
  934SOL    HW2 3766   3.886   3.903   1.531
  934SOL    HW3 3767   3.740   3.895   1.490
  934SOL    MW4 3768   3.813   3.857   1.519
  935SOL     OW 3769   3.594   3.987   1.459
  935SOL    HW2 3770   3.605   4.071   1.503
  935SOL    HW3 3771   3.523   3.944   1.505
  935SOL    MW4 3772   3.586   3.992   1.471
  936SOL     OW 3773   3.618   4.225   1.589
  936SOL    HW2 3774   3.619   4.220   1.685
  936SOL    HW3 3775   3.542   4.281   1.569
  936SOL    MW4 3776   3.608   4.232   1.599
  937SOL     OW 3777   3.816   4.359   1.454
  937SOL    HW2 3778   3.743   4.314   1.496
  937SOL    HW3 3779   3.809   4.450   1.485
  937SOL    MW4 3780   3.806   4.365   1.464
  938SOL     OW 3781   4.231   0.003   1.548
  938SOL    HW2 3782   4.248  -0.012   1.641
  938SOL    HW3 3783   4.245  -0.082   1.506
  938SOL    MW4 3784   4.235  -0.010   1.555
  939SOL     OW 3785   4.010   0.124   1.439
  939SOL    HW2 3786   4.004   0.213   1.474
  939SOL    HW3 3787   4.085   0.085   1.486
  939SOL    MW4 3788   4.019   0.130   1.450
  940SOL     OW 3789   3.992   0.367   1.533
  940SOL    HW2 3790   4.008   0.369   1.627
  940SOL    HW3 3791   3.918   0.425   1.520
  940SOL    MW4 3792   3.985   0.375   1.543
  941SOL     OW 3793   4.226   0.489   1.462
  941SOL    HW2 3794   4.139   0.452   1.475
  941SOL    HW3 3795   4.286   0.419   1.485
  941SOL    MW4 3796   4.222   0.475   1.466
  942SOL     OW 3797   4.242   0.753   1.565
  942SOL    HW2 3798   4.233   0.665   1.527
  942SOL    HW3 3799   4.320   0.789   1.525
  942SOL    MW4 3800   4.251   0.746   1.555
  943SOL     OW 3801   4.047   0.920   1.472
  943SOL    HW2 3802   4.118   0.867   1.508
  943SOL    HW3 3803   3.967   0.872   1.494
  943SOL    MW4 3804   4.045   0.907   1.480
  944SOL     OW 3805   4.026   1.176   1.580
  944SOL    HW2 3806   4.012   1.164   1.674
  944SOL    HW3 3807   4.044   1.088   1.547
  944SOL    MW4 3808   4.026   1.163   1.588
  945SOL     OW 3809   4.262   1.313   1.458
  945SOL    HW2 3810   4.192   1.272   1.508
  945SOL    HW3 3811   4.340   1.263   1.480
  945SOL    MW4 3812   4.263   1.301   1.467
  946SOL     OW 3813   4.241   1.554   1.583
  946SOL    HW2 3814   4.244   1.470   1.538
  946SOL    HW3 3815   4.322   1.598   1.557
  946SOL    MW4 3816   4.252   1.549   1.574
  947SOL     OW 3817   3.999   1.679   1.500
  947SOL    HW2 3818   4.079   1.636   1.528
  947SOL    HW3 3819   3.929   1.618   1.521
  947SOL    MW4 3820   4.000   1.666   1.506
  948SOL     OW 3821   4.047   1.937   1.607
  948SOL    HW2 3822   4.028   1.845   1.588
  948SOL    HW3 3823   3.980   1.985   1.559
  948SOL    MW4 3824   4.036   1.931   1.598
  949SOL     OW 3825   4.259   2.051   1.486
  949SOL    HW2 3826   4.182   2.011   1.526
  949SOL    HW3 3827   4.240   2.052   1.392
  949SOL    MW4 3828   4.246   2.046   1.479
  950SOL     OW 3829   4.222   2.336   1.575
  950SOL    HW2 3830   4.242   2.345   1.668
  950SOL    HW3 3831   4.239   2.243   1.556
  950SOL    MW4 3832   4.227   2.325   1.585
  951SOL     OW 3833   4.006   2.465   1.467
  951SOL    HW2 3834   4.005   2.554   1.502
  951SOL    HW3 3835   4.089   2.428   1.498
  951SOL    MW4 3836   4.017   2.472   1.476
  952SOL     OW 3837   4.030   2.706   1.557
  952SOL    HW2 3838   4.019   2.720   1.651
  952SOL    HW3 3839   4.119   2.739   1.539
  952SOL    MW4 3840   4.040   2.712   1.567
  953SOL     OW 3841   4.265   2.812   1.492
  953SOL    HW2 3842   4.275   2.901   1.525
  953SOL    HW3 3843   4.263   2.822   1.397
  953SOL    MW4 3844   4.266   2.825   1.484
  954SOL     OW 3845   4.313   3.084   1.560
  954SOL    HW2 3846   4.302   3.097   1.655
  954SOL    HW3 3847   4.392   3.133   1.538
  954SOL    MW4 3848   4.322   3.092   1.570
  955SOL     OW 3849   4.092   3.215   1.465
  955SOL    HW2 3850   4.095   3.298   1.511
  955SOL    HW3 3851   4.177   3.174   1.484
  955SOL    MW4 3852   4.104   3.220   1.474
  956SOL     OW 3853   4.107   3.483   1.576
  956SOL    HW2 3854   4.118   3.492   1.670
  956SOL    HW3 3855   4.161   3.552   1.539
  956SOL    MW4 3856   4.116   3.493   1.583
  957SOL     OW 3857   4.330   3.649   1.471
  957SOL    HW2 3858   4.317   3.737   1.507
  957SOL    HW3 3859   4.286   3.652   1.386
  957SOL    MW4 3860   4.322   3.661   1.465
  958SOL     OW 3861   4.271   3.889   1.567
  958SOL    HW2 3862   4.185   3.930   1.556
  958SOL    HW3 3863   4.333   3.955   1.535
  958SOL    MW4 3864   4.268   3.903   1.561
  959SOL     OW 3865   4.033   3.994   1.495
  959SOL    HW2 3866   4.043   4.086   1.517
  959SOL    HW3 3867   4.040   3.990   1.399
  959SOL    MW4 3868   4.036   4.005   1.485
  960SOL     OW 3869   4.081   4.262   1.540
  960SOL    HW2 3870   4.077   4.252   1.635
  960SOL    HW3 3871   4.005   4.315   1.518
  960SOL    MW4 3872   4.071   4.268   1.549
  961SOL     OW 3873   4.274   4.431   1.444
  961SOL    HW2 3874   4.212   4.364   1.471
  961SOL    HW3 3875   4.308   4.401   1.360
  961SOL    MW4 3876   4.270   4.418   1.436
  962SOL     OW 3877   0.248   0.026   1.839
  962SOL    HW2 3878   0.333   0.056   1.872
  962SOL    HW3 3879   0.264   0.006   1.747
  962SOL    MW4 3880   0.261   0.027   1.831
  963SOL     OW 3881   4.483   0.094   1.942
  963SOL    HW2 3882   4.472   0.188   1.925
  963SOL    HW3 3883   4.568   0.073   1.903
  963SOL    MW4 3884   4.493   0.104   1.934
  964SOL     OW 3885   4.468   0.353   1.850
  964SOL    HW2 3886   4.393   0.408   1.876
  964SOL    HW3 3887   4.545   0.401   1.882
  964SOL    MW4 3888   4.468   0.367   1.858
  965SOL     OW 3889   0.213   0.478   1.941
  965SOL    HW2 3890   0.302   0.453   1.914
  965SOL    HW3 3891   0.208   0.572   1.921
  965SOL    MW4 3892   0.224   0.487   1.934
  966SOL     OW 3893   0.192   0.731   1.858
  966SOL    HW2 3894   0.269   0.783   1.879
  966SOL    HW3 3895   0.186   0.734   1.762
  966SOL    MW4 3896   0.201   0.738   1.848
  967SOL     OW 3897   4.486   0.901   1.932
  967SOL    HW2 3898   4.408   0.849   1.915
  967SOL    HW3 3899   4.559   0.847   1.901
  967SOL    MW4 3900   4.486   0.887   1.925
  968SOL     OW 3901   4.483   1.163   1.841
  968SOL    HW2 3902   4.397   1.195   1.870
  968SOL    HW3 3903   4.483   1.070   1.866
  968SOL    MW4 3904   4.471   1.155   1.848
  969SOL     OW 3905   0.226   1.323   1.938
  969SOL    HW2 3906   0.201   1.409   1.904
  969SOL    HW3 3907   0.163   1.262   1.898
  969SOL    MW4 3908   0.214   1.326   1.928
  970SOL     OW 3909   0.201   1.563   1.804
  970SOL    HW2 3910   0.273   1.621   1.829
  970SOL    HW3 3911   0.123   1.606   1.838
  970SOL    MW4 3912   0.200   1.576   1.812
  971SOL     OW 3913   4.490   1.673   1.975
  971SOL    HW2 3914   4.492   1.669   2.071
  971SOL    HW3 3915   4.421   1.612   1.949
  971SOL    MW4 3916   4.481   1.665   1.984
  972SOL     OW 3917   4.476   1.921   1.855
  972SOL    HW2 3918   4.391   1.957   1.880
  972SOL    HW3 3919   4.477   1.834   1.893
  972SOL    MW4 3920   4.465   1.914   1.863
  973SOL     OW 3921   0.206   2.064   1.988
  973SOL    HW2 3922   0.224   2.148   1.946
  973SOL    HW3 3923   0.127   2.032   1.945
  973SOL    MW4 3924   0.198   2.070   1.977
  974SOL     OW 3925   0.229   2.322   1.871
  974SOL    HW2 3926   0.301   2.375   1.904
  974SOL    HW3 3927   0.150   2.367   1.902
  974SOL    MW4 3928   0.228   2.335   1.880
  975SOL     OW 3929   0.002   2.447   1.976
  975SOL    HW2 3930  -0.005   2.461   2.070
  975SOL    HW3 3931   0.005   2.535   1.938
  975SOL    MW4 3932   0.001   2.460   1.983
  976SOL     OW 3933   0.029   2.714   1.877
  976SOL    HW2 3934  -0.057   2.750   1.903
  976SOL    HW3 3935   0.024   2.707   1.781
  976SOL    MW4 3936   0.017   2.717   1.868
  977SOL     OW 3937   0.228   2.865   1.977
  977SOL    HW2 3938   0.217   2.954   1.943
  977SOL    HW3 3939   0.153   2.817   1.942
  977SOL    MW4 3940   0.217   2.870   1.968
  978SOL     OW 3941   0.238   3.122   1.877
  978SOL    HW2 3942   0.318   3.166   1.906
  978SOL    HW3 3943   0.250   3.109   1.783
  978SOL    MW4 3944   0.250   3.126   1.869
  979SOL     OW 3945   0.007   3.226   1.990
  979SOL    HW2 3946  -0.066   3.173   1.957
  979SOL    HW3 3947   0.085   3.188   1.950
  979SOL    MW4 3948   0.008   3.214   1.980
  980SOL     OW 3949   4.469   3.477   1.867
  980SOL    HW2 3950   4.533   3.540   1.899
  980SOL    HW3 3951   4.485   3.398   1.918
  980SOL    MW4 3952   4.479   3.475   1.878
  981SOL     OW 3953   0.231   3.611   1.954
  981SOL    HW2 3954   0.220   3.617   2.049
  981SOL    HW3 3955   0.309   3.557   1.942
  981SOL    MW4 3956   0.240   3.605   1.965
  982SOL     OW 3957   0.265   3.868   1.828
  982SOL    HW2 3958   0.328   3.925   1.873
  982SOL    HW3 3959   0.275   3.783   1.870
  982SOL    MW4 3960   0.275   3.865   1.840
  983SOL     OW 3961   0.038   3.961   1.983
  983SOL    HW2 3962   0.019   4.047   1.945
  983SOL    HW3 3963   0.121   3.935   1.942
  983SOL    MW4 3964   0.047   3.969   1.973
  984SOL     OW 3965   0.018   4.238   1.875
  984SOL    HW2 3966  -0.059   4.289   1.902
  984SOL    HW3 3967   0.093   4.293   1.896
  984SOL    MW4 3968   0.018   4.252   1.881
  985SOL     OW 3969   0.241   4.418   1.944
  985SOL    HW2 3970   0.226   4.412   2.038
  985SOL    HW3 3971   0.238   4.512   1.925
  985SOL    MW4 3972   0.239   4.430   1.954
  986SOL     OW 3973   0.700   0.036   1.817
  986SOL    HW2 3974   0.675  -0.052   1.845
  986SOL    HW3 3975   0.704   0.031   1.722
  986SOL    MW4 3976   0.698   0.024   1.808
  987SOL     OW 3977   0.478   0.115   1.969
  987SOL    HW2 3978   0.465   0.207   1.946
  987SOL    HW3 3979   0.560   0.090   1.925
  987SOL    MW4 3980   0.487   0.124   1.960
  988SOL     OW 3981   0.460   0.377   1.868
  988SOL    HW2 3982   0.546   0.417   1.880
  988SOL    HW3 3983   0.449   0.371   1.773
  988SOL    MW4 3984   0.470   0.381   1.857
  989SOL     OW 3985   0.673   0.507   1.961
  989SOL    HW2 3986   0.655   0.515   2.055
  989SOL    HW3 3987   0.769   0.500   1.955
  989SOL    MW4 3988   0.684   0.507   1.973
  990SOL     OW 3989   0.691   0.758   1.871
  990SOL    HW2 3990   0.780   0.772   1.902
  990SOL    HW3 3991   0.669   0.670   1.902
  990SOL    MW4 3992   0.700   0.748   1.879
  991SOL     OW 3993   0.438   0.841   1.935
  991SOL    HW2 3994   0.425   0.936   1.935
  991SOL    HW3 3995   0.532   0.830   1.925
  991SOL    MW4 3996   0.448   0.852   1.933
  992SOL     OW 3997   0.389   1.113   1.884
  992SOL    HW2 3998   0.326   1.180   1.912
  992SOL    HW3 3999   0.391   1.122   1.788
  992SOL    MW4 4000   0.381   1.123   1.875
  993SOL     OW 4001   0.621   1.249   1.971
  993SOL    HW2 4002   0.623   1.260   2.066
  993SOL    HW3 4003   0.543   1.196   1.955
  993SOL    MW4 4004   0.611   1.244   1.981
  994SOL     OW 4005   0.649   1.514   1.855
  994SOL    HW2 4006   0.629   1.427   1.889
  994SOL    HW3 4007   0.660   1.502   1.761
  994SOL    MW4 4008   0.648   1.501   1.847
  995SOL     OW 4009   0.442   1.677   1.918
  995SOL    HW2 4010   0.453   1.671   2.013
  995SOL    HW3 4011   0.519   1.633   1.882
  995SOL    MW4 4012   0.454   1.671   1.926
  996SOL     OW 4013   0.433   1.963   1.877
  996SOL    HW2 4014   0.443   1.869   1.891
  996SOL    HW3 4015   0.351   1.985   1.921
  996SOL    MW4 4016   0.423   1.954   1.885
  997SOL     OW 4017   0.654   2.106   1.990
  997SOL    HW2 4018   0.626   2.110   2.081
  997SOL    HW3 4019   0.584   2.058   1.946
  997SOL    MW4 4020   0.641   2.100   1.996
  998SOL     OW 4021   0.692   2.370   1.911
  998SOL    HW2 4022   0.685   2.277   1.935
  998SOL    HW3 4023   0.701   2.369   1.816
  998SOL    MW4 4024   0.693   2.358   1.902
  999SOL     OW 4025   0.446   2.471   1.978
  999SOL    HW2 4026   0.443   2.486   2.073
  999SOL    HW3 4027   0.534   2.437   1.963
  999SOL    MW4 4028   0.458   2.468   1.989
 1000SOL     OW 4029   0.450   2.741   1.882
 1000SOL    HW2 4030   0.440   2.650   1.907
 1000SOL    HW3 4031   0.367   2.782   1.907
 1000SOL    MW4 4032   0.438   2.735   1.889
 1001SOL     OW 4033   0.673   2.866   2.002
 1001SOL    HW2 4034   0.673   2.886   2.095
 1001SOL    HW3 4035   0.591   2.819   1.987
 1001SOL    MW4 4036   0.662   2.862   2.012
 1002SOL     OW 4037   0.715   3.140   1.862
 1002SOL    HW2 4038   0.711   3.048   1.887
 1002SOL    HW3 4039   0.722   3.138   1.767
 1002SOL    MW4 4040   0.715   3.128   1.853
 1003SOL     OW 4041   0.482   3.239   1.960
 1003SOL    HW2 4042   0.480   3.333   1.940
 1003SOL    HW3 4043   0.562   3.207   1.918
 1003SOL    MW4 4044   0.492   3.247   1.952
 1004SOL     OW 4045   0.476   3.495   1.872
 1004SOL    HW2 4046   0.535   3.560   1.911
 1004SOL    HW3 4047   0.483   3.510   1.778
 1004SOL    MW4 4048   0.485   3.506   1.865
 1005SOL     OW 4049   0.649   3.666   2.003
 1005SOL    HW2 4050   0.718   3.612   1.965
 1005SOL    HW3 4051   0.667   3.754   1.971
 1005SOL    MW4 4052   0.660   3.671   1.994
 1006SOL     OW 4053   0.696   3.921   1.876
 1006SOL    HW2 4054   0.767   3.967   1.921
 1006SOL    HW3 4055   0.718   3.927   1.783
 1006SOL    MW4 4056   0.708   3.928   1.870
 1007SOL     OW 4057   0.446   4.025   1.949
 1007SOL    HW2 4058   0.445   4.110   1.906
 1007SOL    HW3 4059   0.528   3.984   1.921
 1007SOL    MW4 4060   0.456   4.031   1.939
 1008SOL     OW 4061   0.456   4.269   1.823
 1008SOL    HW2 4062   0.387   4.322   1.862
 1008SOL    HW3 4063   0.439   4.275   1.729
 1008SOL    MW4 4064   0.445   4.277   1.815
 1009SOL     OW 4065   0.634   4.442   1.934
 1009SOL    HW2 4066   0.717   4.395   1.924
 1009SOL    HW3 4067   0.567   4.376   1.915
 1009SOL    MW4 4068   0.636   4.427   1.930
 1010SOL     OW 4069   1.103   4.658   1.853
 1010SOL    HW2 4070   1.167   4.715   1.896
 1010SOL    HW3 4071   1.112   4.574   1.897
 1010SOL    MW4 4072   1.112   4.654   1.865
 1011SOL     OW 4073   0.882   0.158   1.990
 1011SOL    HW2 4074   0.953   0.093   1.990
 1011SOL    HW3 4075   0.826   0.132   1.918
 1011SOL    MW4 4076   0.884   0.146   1.980
 1012SOL     OW 4077   0.925   0.427   1.886
 1012SOL    HW2 4078   1.004   0.474   1.911
 1012SOL    HW3 4079   0.931   0.343   1.932
 1012SOL    MW4 4080   0.936   0.422   1.895
 1013SOL     OW 4081   1.139   0.573   1.992
 1013SOL    HW2 4082   1.222   0.533   1.965
 1013SOL    HW3 4083   1.131   0.650   1.936
 1013SOL    MW4 4084   1.149   0.578   1.981
 1014SOL     OW 4085   1.159   0.807   1.851
 1014SOL    HW2 4086   1.223   0.856   1.903
 1014SOL    HW3 4087   1.074   0.833   1.887
 1014SOL    MW4 4088   1.156   0.817   1.863
 1015SOL     OW 4089   0.931   0.863   1.978
 1015SOL    HW2 4090   0.917   0.853   2.072
 1015SOL    HW3 4091   0.910   0.955   1.961
 1015SOL    MW4 4092   0.926   0.874   1.988
 1016SOL     OW 4093   0.873   1.147   1.914
 1016SOL    HW2 4094   0.785   1.164   1.949
 1016SOL    HW3 4095   0.862   1.148   1.819
 1016SOL    MW4 4096   0.860   1.150   1.906
 1017SOL     OW 4097   1.106   1.281   1.974
 1017SOL    HW2 4098   1.096   1.369   1.938
 1017SOL    HW3 4099   1.021   1.240   1.962
 1017SOL    MW4 4100   1.094   1.287   1.968
 1018SOL     OW 4101   1.092   1.536   1.870
 1018SOL    HW2 4102   1.005   1.569   1.893
 1018SOL    HW3 4103   1.093   1.534   1.774
 1018SOL    MW4 4104   1.081   1.540   1.860
 1019SOL     OW 4105   0.861   1.644   1.968
 1019SOL    HW2 4106   0.841   1.737   1.960
 1019SOL    HW3 4107   0.781   1.600   1.938
 1019SOL    MW4 4108   0.847   1.650   1.963
 1020SOL     OW 4109   0.852   1.922   1.936
 1020SOL    HW2 4110   0.764   1.958   1.947
 1020SOL    HW3 4111   0.863   1.916   1.841
 1020SOL    MW4 4112   0.842   1.926   1.925
 1021SOL     OW 4113   1.088   2.067   1.993
 1021SOL    HW2 4114   1.068   2.159   1.979
 1021SOL    HW3 4115   1.009   2.020   1.965
 1021SOL    MW4 4116   1.075   2.073   1.988
 1022SOL     OW 4117   1.099   2.343   1.938
 1022SOL    HW2 4118   1.179   2.387   1.968
 1022SOL    HW3 4119   1.107   2.342   1.843
 1022SOL    MW4 4120   1.111   2.349   1.930
 1023SOL     OW 4121   0.906   2.504   2.020
 1023SOL    HW2 4122   0.980   2.454   1.986
 1023SOL    HW3 4123   0.829   2.462   1.982
 1023SOL    MW4 4124   0.906   2.492   2.011
 1024SOL     OW 4125   0.895   2.753   1.860
 1024SOL    HW2 4126   0.912   2.668   1.900
 1024SOL    HW3 4127   0.820   2.788   1.909
 1024SOL    MW4 4128   0.887   2.746   1.872
 1025SOL     OW 4129   1.150   2.862   1.966
 1025SOL    HW2 4130   1.156   2.846   2.060
 1025SOL    HW3 4131   1.059   2.843   1.944
 1025SOL    MW4 4132   1.139   2.858   1.975
 1026SOL     OW 4133   1.128   3.135   1.916
 1026SOL    HW2 4134   1.047   3.173   1.949
 1026SOL    HW3 4135   1.124   3.043   1.942
 1026SOL    MW4 4136   1.117   3.128   1.924
 1027SOL     OW 4137   0.907   3.258   1.997
 1027SOL    HW2 4138   0.895   3.239   2.090
 1027SOL    HW3 4139   0.837   3.209   1.954
 1027SOL    MW4 4140   0.896   3.249   2.004
 1028SOL     OW 4141   0.834   3.513   1.898
 1028SOL    HW2 4142   0.853   3.424   1.926
 1028SOL    HW3 4143   0.839   3.510   1.803
 1028SOL    MW4 4144   0.837   3.501   1.889
 1029SOL     OW 4145   1.046   3.664   1.973
 1029SOL    HW2 4146   1.068   3.643   2.064
 1029SOL    HW3 4147   0.968   3.612   1.955
 1029SOL    MW4 4148   1.039   3.655   1.983
 1030SOL     OW 4149   1.149   3.907   1.923
 1030SOL    HW2 4150   1.114   3.827   1.962
 1030SOL    HW3 4151   1.150   3.890   1.829
 1030SOL    MW4 4152   1.145   3.894   1.916
 1031SOL     OW 4153   0.898   4.046   2.005
 1031SOL    HW2 4154   0.896   4.041   2.100
 1031SOL    HW3 4155   0.980   4.003   1.980
 1031SOL    MW4 4156   0.908   4.040   2.014
 1032SOL     OW 4157   0.885   4.303   1.887
 1032SOL    HW2 4158   0.966   4.342   1.920
 1032SOL    HW3 4159   0.879   4.219   1.932
 1032SOL    MW4 4160   0.895   4.297   1.897
 1033SOL     OW 4161   1.113   4.416   1.987
 1033SOL    HW2 4162   1.120   4.422   2.082
 1033SOL    HW3 4163   1.195   4.375   1.960
 1033SOL    MW4 4164   1.125   4.412   1.996
 1034SOL     OW 4165   1.544   0.013   1.885
 1034SOL    HW2 4166   1.626   0.053   1.913
 1034SOL    HW3 4167   1.557  -0.081   1.899
 1034SOL    MW4 4168   1.557   0.006   1.890
 1035SOL     OW 4169   1.312   0.171   1.997
 1035SOL    HW2 4170   1.305   0.161   2.092
 1035SOL    HW3 4171   1.401   0.142   1.976
 1035SOL    MW4 4172   1.323   0.166   2.007
 1036SOL     OW 4173   1.364   0.425   1.896
 1036SOL    HW2 4174   1.335   0.341   1.932
 1036SOL    HW3 4175   1.346   0.419   1.802
 1036SOL    MW4 4176   1.358   0.413   1.889
 1037SOL     OW 4177   1.594   0.511   2.026
 1037SOL    HW2 4178   1.670   0.465   1.990
 1037SOL    HW3 4179   1.519   0.470   1.982
 1037SOL    MW4 4180   1.594   0.500   2.015
 1038SOL     OW 4181   1.584   0.766   1.911
 1038SOL    HW2 4182   1.664   0.809   1.941
 1038SOL    HW3 4183   1.582   0.683   1.958
 1038SOL    MW4 4184   1.595   0.761   1.921
 1039SOL     OW 4185   1.375   0.923   1.967
 1039SOL    HW2 4186   1.371   0.917   2.063
 1039SOL    HW3 4187   1.439   0.856   1.942
 1039SOL    MW4 4188   1.383   0.913   1.977
 1040SOL     OW 4189   1.333   1.175   1.866
 1040SOL    HW2 4190   1.337   1.088   1.904
 1040SOL    HW3 4191   1.246   1.208   1.890
 1040SOL    MW4 4192   1.322   1.168   1.874
 1041SOL     OW 4193   1.549   1.314   1.968
 1041SOL    HW2 4194   1.565   1.393   1.918
 1041SOL    HW3 4195   1.472   1.274   1.928
 1041SOL    MW4 4196   1.541   1.319   1.956
 1042SOL     OW 4197   1.573   1.565   1.850
 1042SOL    HW2 4198   1.640   1.593   1.914
 1042SOL    HW3 4199   1.490   1.587   1.892
 1042SOL    MW4 4200   1.571   1.572   1.864
 1043SOL     OW 4201   1.345   1.667   1.963
 1043SOL    HW2 4202   1.344   1.657   2.058
 1043SOL    HW3 4203   1.256   1.645   1.936
 1043SOL    MW4 4204   1.333   1.663   1.972
 1044SOL     OW 4205   1.328   1.953   1.868
 1044SOL    HW2 4206   1.338   1.867   1.910
 1044SOL    HW3 4207   1.246   1.987   1.902
 1044SOL    MW4 4208   1.319   1.946   1.878
 1045SOL     OW 4209   1.568   2.067   1.962
 1045SOL    HW2 4210   1.578   2.159   1.938
 1045SOL    HW3 4211   1.486   2.041   1.921
 1045SOL    MW4 4212   1.559   2.076   1.953
 1046SOL     OW 4213   1.574   2.320   1.851
 1046SOL    HW2 4214   1.661   2.356   1.868
 1046SOL    HW3 4215   1.559   2.337   1.758
 1046SOL    MW4 4216   1.584   2.327   1.841
 1047SOL     OW 4217   1.358   2.471   1.977
 1047SOL    HW2 4218   1.364   2.557   1.934
 1047SOL    HW3 4219   1.420   2.416   1.930
 1047SOL    MW4 4220   1.367   2.475   1.965
 1048SOL     OW 4221   1.372   2.723   1.857
 1048SOL    HW2 4222   1.294   2.774   1.879
 1048SOL    HW3 4223   1.371   2.718   1.762
 1048SOL    MW4 4224   1.361   2.729   1.848
 1049SOL     OW 4225   1.584   2.868   1.980
 1049SOL    HW2 4226   1.669   2.843   1.943
 1049SOL    HW3 4227   1.521   2.812   1.934
 1049SOL    MW4 4228   1.587   2.857   1.969
 1050SOL     OW 4229   1.552   3.123   1.867
 1050SOL    HW2 4230   1.552   3.038   1.912
 1050SOL    HW3 4231   1.535   3.100   1.775
 1050SOL    MW4 4232   1.550   3.109   1.861
 1051SOL     OW 4233   1.353   3.271   1.979
 1051SOL    HW2 4234   1.418   3.217   1.933
 1051SOL    HW3 4235   1.270   3.246   1.939
 1051SOL    MW4 4236   1.351   3.261   1.967
 1052SOL     OW 4237   1.308   3.545   1.864
 1052SOL    HW2 4238   1.309   3.468   1.920
 1052SOL    HW3 4239   1.228   3.591   1.887
 1052SOL    MW4 4240   1.298   3.541   1.874
 1053SOL     OW 4241   1.523   3.673   1.973
 1053SOL    HW2 4242   1.536   3.658   2.067
 1053SOL    HW3 4243   1.439   3.630   1.954
 1053SOL    MW4 4244   1.514   3.665   1.983
 1054SOL     OW 4245   1.612   3.916   1.862
 1054SOL    HW2 4246   1.683   3.959   1.911
 1054SOL    HW3 4247   1.598   3.833   1.908
 1054SOL    MW4 4248   1.620   3.911   1.875
 1055SOL     OW 4249   1.393   4.030   1.982
 1055SOL    HW2 4250   1.469   3.990   1.941
 1055SOL    HW3 4251   1.317   3.987   1.942
 1055SOL    MW4 4252   1.393   4.019   1.972
 1056SOL     OW 4253   1.330   4.288   1.901
 1056SOL    HW2 4254   1.341   4.204   1.946
 1056SOL    HW3 4255   1.331   4.265   1.808
 1056SOL    MW4 4256   1.332   4.274   1.895
 1057SOL     OW 4257   1.569   4.415   1.969
 1057SOL    HW2 4258   1.568   4.423   2.065
 1057SOL    HW3 4259   1.489   4.367   1.948
 1057SOL    MW4 4260   1.558   4.410   1.979
 1058SOL     OW 4261   1.977   4.630   1.872
 1058SOL    HW2 4262   2.044   4.687   1.911
 1058SOL    HW3 4263   1.992   4.545   1.912
 1058SOL    MW4 4264   1.988   4.627   1.883
 1059SOL     OW 4265   1.776   0.116   1.978
 1059SOL    HW2 4266   1.781   0.116   2.074
 1059SOL    HW3 4267   1.848   0.059   1.950
 1059SOL    MW4 4268   1.786   0.108   1.987
 1060SOL     OW 4269   1.821   0.381   1.927
 1060SOL    HW2 4270   1.814   0.288   1.946
 1060SOL    HW3 4271   1.804   0.387   1.833
 1060SOL    MW4 4272   1.818   0.370   1.917
 1061SOL     OW 4273   2.027   0.556   1.992
 1061SOL    HW2 4274   2.021   0.632   1.934
 1061SOL    HW3 4275   1.956   0.499   1.965
 1061SOL    MW4 4276   2.017   0.559   1.981
 1062SOL     OW 4277   2.012   0.780   1.833
 1062SOL    HW2 4278   2.083   0.839   1.856
 1062SOL    HW3 4279   2.004   0.788   1.738
 1062SOL    MW4 4280   2.020   0.789   1.823
 1063SOL     OW 4281   1.806   0.891   2.019
 1063SOL    HW2 4282   1.787   0.973   1.974
 1063SOL    HW3 4283   1.875   0.851   1.965
 1063SOL    MW4 4284   1.813   0.897   2.006
 1064SOL     OW 4285   1.765   1.132   1.887
 1064SOL    HW2 4286   1.707   1.204   1.911
 1064SOL    HW3 4287   1.775   1.139   1.792
 1064SOL    MW4 4288   1.759   1.142   1.878
 1065SOL     OW 4289   1.991   1.256   2.022
 1065SOL    HW2 4290   2.058   1.214   1.969
 1065SOL    HW3 4291   1.908   1.220   1.989
 1065SOL    MW4 4292   1.989   1.246   2.010
 1066SOL     OW 4293   2.007   1.514   1.911
 1066SOL    HW2 4294   2.010   1.429   1.954
 1066SOL    HW3 4295   2.027   1.496   1.819
 1066SOL    MW4 4296   2.010   1.501   1.905
 1067SOL     OW 4297   1.798   1.675   1.998
 1067SOL    HW2 4298   1.802   1.761   1.956
 1067SOL    HW3 4299   1.872   1.627   1.961
 1067SOL    MW4 4300   1.808   1.680   1.987
 1068SOL     OW 4301   1.785   1.932   1.895
 1068SOL    HW2 4302   1.713   1.987   1.926
 1068SOL    HW3 4303   1.778   1.937   1.800
 1068SOL    MW4 4304   1.774   1.940   1.887
 1069SOL     OW 4305   2.024   2.076   1.955
 1069SOL    HW2 4306   2.103   2.032   1.923
 1069SOL    HW3 4307   1.952   2.021   1.926
 1069SOL    MW4 4308   2.025   2.063   1.947
 1070SOL     OW 4309   2.057   2.340   1.862
 1070SOL    HW2 4310   2.143   2.379   1.873
 1070SOL    HW3 4311   2.065   2.253   1.901
 1070SOL    MW4 4312   2.069   2.333   1.869
 1071SOL     OW 4313   1.811   2.467   1.934
 1071SOL    HW2 4314   1.806   2.467   2.030
 1071SOL    HW3 4315   1.897   2.429   1.915
 1071SOL    MW4 4316   1.822   2.462   1.944
 1072SOL     OW 4317   1.799   2.729   1.872
 1072SOL    HW2 4318   1.791   2.635   1.890
 1072SOL    HW3 4319   1.802   2.735   1.777
 1072SOL    MW4 4320   1.798   2.717   1.862
 1073SOL     OW 4321   2.027   2.853   2.001
 1073SOL    HW2 4322   2.012   2.863   2.095
 1073SOL    HW3 4323   1.950   2.807   1.969
 1073SOL    MW4 4324   2.015   2.848   2.009
 1074SOL     OW 4325   2.022   3.123   1.883
 1074SOL    HW2 4326   1.945   3.165   1.920
 1074SOL    HW3 4327   2.021   3.035   1.921
 1074SOL    MW4 4328   2.012   3.117   1.893
 1075SOL     OW 4329   1.784   3.266   1.922
 1075SOL    HW2 4330   1.777   3.253   2.017
 1075SOL    HW3 4331   1.715   3.211   1.885
 1075SOL    MW4 4332   1.774   3.257   1.930
 1076SOL     OW 4333   1.745   3.538   1.854
 1076SOL    HW2 4334   1.754   3.448   1.886
 1076SOL    HW3 4335   1.668   3.571   1.900
 1076SOL    MW4 4336   1.736   3.530   1.864
 1077SOL     OW 4337   2.079   3.614   1.951
 1077SOL    HW2 4338   2.068   3.709   1.943
 1077SOL    HW3 4339   2.005   3.578   1.902
 1077SOL    MW4 4340   2.068   3.622   1.943
 1078SOL     OW 4341   2.030   3.870   1.886
 1078SOL    HW2 4342   2.109   3.915   1.916
 1078SOL    HW3 4343   2.033   3.877   1.791
 1078SOL    MW4 4344   2.041   3.877   1.878
 1079SOL     OW 4345   1.824   4.021   1.999
 1079SOL    HW2 4346   1.812   4.113   1.974
 1079SOL    HW3 4347   1.895   3.990   1.944
 1079SOL    MW4 4348   1.831   4.029   1.988
 1080SOL     OW 4349   1.774   4.263   1.874
 1080SOL    HW2 4350   1.706   4.323   1.905
 1080SOL    HW3 4351   1.779   4.278   1.780
 1080SOL    MW4 4352   1.766   4.273   1.866
 1081SOL     OW 4353   2.025   4.382   1.974
 1081SOL    HW2 4354   2.099   4.358   1.918
 1081SOL    HW3 4355   1.951   4.333   1.938
 1081SOL    MW4 4356   2.025   4.372   1.962
 1082SOL     OW 4357   2.417   0.009   1.853
 1082SOL    HW2 4358   2.490   0.038   1.907
 1082SOL    HW3 4359   2.419  -0.087   1.861
 1082SOL    MW4 4360   2.427   0.000   1.861
 1083SOL     OW 4361   2.185   0.137   1.954
 1083SOL    HW2 4362   2.207   0.138   2.047
 1083SOL    HW3 4363   2.249   0.079   1.914
 1083SOL    MW4 4364   2.196   0.130   1.961
 1084SOL     OW 4365   2.225   0.411   1.860
 1084SOL    HW2 4366   2.210   0.321   1.887
 1084SOL    HW3 4367   2.154   0.461   1.900
 1084SOL    MW4 4368   2.213   0.406   1.869
 1085SOL     OW 4369   2.431   0.514   2.026
 1085SOL    HW2 4370   2.505   0.458   2.004
 1085SOL    HW3 4371   2.359   0.481   1.970
 1085SOL    MW4 4372   2.431   0.502   2.015
 1086SOL     OW 4373   2.478   0.771   1.906
 1086SOL    HW2 4374   2.468   0.683   1.942
 1086SOL    HW3 4375   2.494   0.757   1.813
 1086SOL    MW4 4376   2.479   0.757   1.898
 1087SOL     OW 4377   2.235   0.902   1.943
 1087SOL    HW2 4378   2.221   0.899   2.038
 1087SOL    HW3 4379   2.326   0.873   1.932
 1087SOL    MW4 4380   2.245   0.898   1.954
 1088SOL     OW 4381   2.234   1.168   1.888
 1088SOL    HW2 4382   2.312   1.214   1.921
 1088SOL    HW3 4383   2.239   1.081   1.928
 1088SOL    MW4 4384   2.245   1.163   1.897
 1089SOL     OW 4385   2.474   1.287   1.982
 1089SOL    HW2 4386   2.472   1.273   2.076
 1089SOL    HW3 4387   2.495   1.380   1.972
 1089SOL    MW4 4388   2.477   1.298   1.993
 1090SOL     OW 4389   2.497   1.551   1.907
 1090SOL    HW2 4390   2.406   1.574   1.925
 1090SOL    HW3 4391   2.502   1.551   1.811
 1090SOL    MW4 4392   2.485   1.554   1.897
 1091SOL     OW 4393   2.249   1.639   1.972
 1091SOL    HW2 4394   2.244   1.669   2.063
 1091SOL    HW3 4395   2.170   1.587   1.959
 1091SOL    MW4 4396   2.238   1.636   1.983
 1092SOL     OW 4397   2.258   1.940   1.889
 1092SOL    HW2 4398   2.340   1.977   1.923
 1092SOL    HW3 4399   2.268   1.846   1.900
 1092SOL    MW4 4400   2.270   1.933   1.895
 1093SOL     OW 4401   2.503   2.076   1.949
 1093SOL    HW2 4402   2.578   2.034   1.907
 1093SOL    HW3 4403   2.509   2.168   1.923
 1093SOL    MW4 4404   2.514   2.083   1.940
 1094SOL     OW 4405   2.475   2.340   1.874
 1094SOL    HW2 4406   2.554   2.368   1.920
 1094SOL    HW3 4407   2.404   2.389   1.915
 1094SOL    MW4 4408   2.476   2.350   1.885
 1095SOL     OW 4409   2.269   2.457   1.975
 1095SOL    HW2 4410   2.266   2.450   2.071
 1095SOL    HW3 4411   2.276   2.551   1.959
 1095SOL    MW4 4412   2.269   2.469   1.986
 1096SOL     OW 4413   2.268   2.723   1.905
 1096SOL    HW2 4414   2.183   2.766   1.917
 1096SOL    HW3 4415   2.272   2.702   1.812
 1096SOL    MW4 4416   2.258   2.726   1.895
 1097SOL     OW 4417   2.481   2.894   1.985
 1097SOL    HW2 4418   2.483   2.987   1.961
 1097SOL    HW3 4419   2.397   2.863   1.951
 1097SOL    MW4 4420   2.470   2.902   1.977
 1098SOL     OW 4421   2.511   3.147   1.889
 1098SOL    HW2 4422   2.433   3.177   1.935
 1098SOL    HW3 4423   2.482   3.131   1.799
 1098SOL    MW4 4424   2.497   3.149   1.883
 1099SOL     OW 4425   2.263   3.235   1.982
 1099SOL    HW2 4426   2.252   3.229   2.077
 1099SOL    HW3 4427   2.184   3.194   1.946
 1099SOL    MW4 4428   2.251   3.229   1.989
 1100SOL     OW 4429   2.322   3.486   1.866
 1100SOL    HW2 4430   2.312   3.403   1.913
 1100SOL    HW3 4431   2.244   3.537   1.889
 1100SOL    MW4 4432   2.310   3.481   1.875
 1101SOL     OW 4433   2.539   3.645   1.953
 1101SOL    HW2 4434   2.540   3.629   2.048
 1101SOL    HW3 4435   2.466   3.592   1.921
 1101SOL    MW4 4436   2.529   3.636   1.961
 1102SOL     OW 4437   2.486   3.902   1.880
 1102SOL    HW2 4438   2.422   3.960   1.922
 1102SOL    HW3 4439   2.483   3.822   1.933
 1102SOL    MW4 4440   2.477   3.899   1.893
 1103SOL     OW 4441   2.231   4.027   1.981
 1103SOL    HW2 4442   2.236   4.051   2.073
 1103SOL    HW3 4443   2.232   4.110   1.934
 1103SOL    MW4 4444   2.232   4.041   1.987
 1104SOL     OW 4445   2.226   4.287   1.832
 1104SOL    HW2 4446   2.312   4.320   1.857
 1104SOL    HW3 4447   2.222   4.299   1.738
 1104SOL    MW4 4448   2.237   4.293   1.823
 1105SOL     OW 4449   2.460   4.400   1.933
 1105SOL    HW2 4450   2.465   4.400   2.028
 1105SOL    HW3 4451   2.526   4.337   1.904
 1105SOL    MW4 4452   2.469   4.392   1.942
 1106SOL     OW 4453   2.911   4.626   1.849
 1106SOL    HW2 4454   2.989   4.666   1.886
 1106SOL    HW3 4455   2.917   4.533   1.873
 1106SOL    MW4 4456   2.922   4.619   1.857
 1107SOL     OW 4457   2.667   0.093   1.965
 1107SOL    HW2 4458   2.694   0.091   2.057
 1107SOL    HW3 4459   2.738   0.049   1.918
 1107SOL    MW4 4460   2.680   0.087   1.971
 1108SOL     OW 4461   2.638   0.368   1.912
 1108SOL    HW2 4462   2.720   0.414   1.930
 1108SOL    HW3 4463   2.658   0.276   1.931
 1108SOL    MW4 4464   2.651   0.362   1.917
 1109SOL     OW 4465   2.885   0.464   1.959
 1109SOL    HW2 4466   2.959   0.414   1.926
 1109SOL    HW3 4467   2.906   0.555   1.938
 1109SOL    MW4 4468   2.898   0.470   1.952
 1110SOL     OW 4469   2.891   0.731   1.883
 1110SOL    HW2 4470   2.973   0.762   1.920
 1110SOL    HW3 4471   2.825   0.789   1.921
 1110SOL    MW4 4472   2.893   0.743   1.893
 1111SOL     OW 4473   2.677   0.924   2.016
 1111SOL    HW2 4474   2.694   1.005   1.968
 1111SOL    HW3 4475   2.600   0.887   1.973
 1111SOL    MW4 4476   2.669   0.930   2.004
 1112SOL     OW 4477   2.692   1.158   1.880
 1112SOL    HW2 4478   2.610   1.202   1.905
 1112SOL    HW3 4479   2.686   1.149   1.785
 1112SOL    MW4 4480   2.680   1.163   1.871
 1113SOL     OW 4481   2.920   1.282   1.973
 1113SOL    HW2 4482   2.918   1.375   1.947
 1113SOL    HW3 4483   2.844   1.243   1.930
 1113SOL    MW4 4484   2.910   1.289   1.964
 1114SOL     OW 4485   2.929   1.539   1.894
 1114SOL    HW2 4486   3.004   1.583   1.933
 1114SOL    HW3 4487   2.953   1.527   1.802
 1114SOL    MW4 4488   2.942   1.543   1.887
 1115SOL     OW 4489   2.731   1.699   1.981
 1115SOL    HW2 4490   2.808   1.647   1.957
 1115SOL    HW3 4491   2.659   1.636   1.981
 1115SOL    MW4 4492   2.732   1.684   1.978
 1116SOL     OW 4493   2.704   1.935   1.841
 1116SOL    HW2 4494   2.776   1.988   1.875
 1116SOL    HW3 4495   2.706   1.856   1.894
 1116SOL    MW4 4496   2.714   1.932   1.852
 1117SOL     OW 4497   2.923   2.076   1.959
 1117SOL    HW2 4498   2.907   2.073   2.053
 1117SOL    HW3 4499   2.997   2.017   1.946
 1117SOL    MW4 4500   2.930   2.068   1.970
 1118SOL     OW 4501   2.936   2.337   1.909
 1118SOL    HW2 4502   3.027   2.360   1.930
 1118SOL    HW3 4503   2.927   2.246   1.937
 1118SOL    MW4 4504   2.947   2.328   1.915
 1119SOL     OW 4505   2.690   2.451   2.000
 1119SOL    HW2 4506   2.673   2.527   1.945
 1119SOL    HW3 4507   2.775   2.419   1.971
 1119SOL    MW4 4508   2.699   2.457   1.989
 1120SOL     OW 4509   2.632   2.687   1.869
 1120SOL    HW2 4510   2.580   2.745   1.925
 1120SOL    HW3 4511   2.622   2.723   1.781
 1120SOL    MW4 4512   2.623   2.700   1.865
 1121SOL     OW 4513   2.878   2.808   2.005
 1121SOL    HW2 4514   2.893   2.894   1.966
 1121SOL    HW3 4515   2.817   2.765   1.944
 1121SOL    MW4 4516   2.872   2.814   1.992
 1122SOL     OW 4517   2.955   3.063   1.879
 1122SOL    HW2 4518   3.037   3.096   1.917
 1122SOL    HW3 4519   2.888   3.123   1.911
 1122SOL    MW4 4520   2.957   3.075   1.888
 1123SOL     OW 4521   2.735   3.245   1.986
 1123SOL    HW2 4522   2.745   3.331   1.944
 1123SOL    HW3 4523   2.658   3.208   1.944
 1123SOL    MW4 4524   2.726   3.252   1.975
 1124SOL     OW 4525   2.763   3.514   1.852
 1124SOL    HW2 4526   2.840   3.563   1.880
 1124SOL    HW3 4527   2.689   3.564   1.886
 1124SOL    MW4 4528   2.763   3.527   1.860
 1125SOL     OW 4529   2.990   3.635   1.933
 1125SOL    HW2 4530   2.969   3.612   2.023
 1125SOL    HW3 4531   3.055   3.570   1.906
 1125SOL    MW4 4532   2.996   3.623   1.941
 1126SOL     OW 4533   2.967   3.894   1.833
 1126SOL    HW2 4534   2.990   3.805   1.859
 1126SOL    HW3 4535   2.949   3.887   1.739
 1126SOL    MW4 4536   2.968   3.881   1.824
 1127SOL     OW 4537   2.735   3.991   1.981
 1127SOL    HW2 4538   2.814   3.938   1.963
 1127SOL    HW3 4539   2.665   3.943   1.937
 1127SOL    MW4 4540   2.736   3.978   1.973
 1128SOL     OW 4541   2.667   4.228   1.853
 1128SOL    HW2 4542   2.692   4.143   1.889
 1128SOL    HW3 4543   2.686   4.222   1.760
 1128SOL    MW4 4544   2.673   4.216   1.845
 1129SOL     OW 4545   2.908   4.365   1.933
 1129SOL    HW2 4546   2.922   4.378   2.027
 1129SOL    HW3 4547   2.826   4.315   1.928
 1129SOL    MW4 4548   2.899   4.360   1.945
 1130SOL     OW 4549   3.388   4.659   1.832
 1130SOL    HW2 4550   3.400   4.580   1.884
 1130SOL    HW3 4551   3.387   4.628   1.742
 1130SOL    MW4 4552   3.389   4.644   1.827
 1131SOL     OW 4553   3.156   0.056   1.945
 1131SOL    HW2 4554   3.172   0.056   2.039
 1131SOL    HW3 4555   3.241   0.033   1.906
 1131SOL    MW4 4556   3.170   0.053   1.952
 1132SOL     OW 4557   3.125   0.316   1.837
 1132SOL    HW2 4558   3.146   0.228   1.869
 1132SOL    HW3 4559   3.166   0.321   1.751
 1132SOL    MW4 4560   3.133   0.305   1.830
 1133SOL     OW 4561   3.318   0.466   1.959
 1133SOL    HW2 4562   3.396   0.422   1.924
 1133SOL    HW3 4563   3.244   0.415   1.924
 1133SOL    MW4 4564   3.318   0.454   1.950
 1134SOL     OW 4565   3.368   0.746   1.919
 1134SOL    HW2 4566   3.277   0.772   1.936
 1134SOL    HW3 4567   3.367   0.651   1.927
 1134SOL    MW4 4568   3.356   0.737   1.922
 1135SOL     OW 4569   3.124   0.844   1.980
 1135SOL    HW2 4570   3.146   0.843   2.073
 1135SOL    HW3 4571   3.126   0.937   1.956
 1135SOL    MW4 4572   3.127   0.856   1.989
 1136SOL     OW 4573   3.123   1.096   1.875
 1136SOL    HW2 4574   3.200   1.133   1.917
 1136SOL    HW3 4575   3.049   1.143   1.915
 1136SOL    MW4 4576   3.123   1.107   1.886
 1137SOL     OW 4577   3.335   1.263   1.965
 1137SOL    HW2 4578   3.322   1.285   2.058
 1137SOL    HW3 4579   3.355   1.347   1.924
 1137SOL    MW4 4580   3.336   1.277   1.972
 1138SOL     OW 4581   3.389   1.520   1.843
 1138SOL    HW2 4582   3.463   1.577   1.864
 1138SOL    HW3 4583   3.314   1.563   1.883
 1138SOL    MW4 4584   3.389   1.533   1.851
 1139SOL     OW 4585   3.181   1.662   1.958
 1139SOL    HW2 4586   3.182   1.662   2.053
 1139SOL    HW3 4587   3.159   1.752   1.934
 1139SOL    MW4 4588   3.178   1.674   1.967
 1140SOL     OW 4589   3.135   1.924   1.892
 1140SOL    HW2 4590   3.211   1.975   1.921
 1140SOL    HW3 4591   3.146   1.917   1.797
 1140SOL    MW4 4592   3.147   1.930   1.884
 1141SOL     OW 4593   3.381   2.025   2.002
 1141SOL    HW2 4594   3.449   1.963   1.975
 1141SOL    HW3 4595   3.408   2.108   1.964
 1141SOL    MW4 4596   3.394   2.028   1.994
 1142SOL     OW 4597   3.397   2.300   1.905
 1142SOL    HW2 4598   3.320   2.349   1.934
 1142SOL    HW3 4599   3.392   2.303   1.809
 1142SOL    MW4 4600   3.386   2.307   1.896
 1143SOL     OW 4601   3.182   2.451   1.983
 1143SOL    HW2 4602   3.167   2.429   2.075
 1143SOL    HW3 4603   3.158   2.544   1.976
 1143SOL    MW4 4604   3.177   2.461   1.995
 1144SOL     OW 4605   3.121   2.726   1.907
 1144SOL    HW2 4606   3.034   2.740   1.944
 1144SOL    HW3 4607   3.110   2.738   1.813
 1144SOL    MW4 4608   3.108   2.729   1.899
 1145SOL     OW 4609   3.390   2.820   1.986
 1145SOL    HW2 4610   3.400   2.827   2.081
 1145SOL    HW3 4611   3.304   2.778   1.974
 1145SOL    MW4 4612   3.380   2.815   1.997
 1146SOL     OW 4613   3.361   3.070   1.884
 1146SOL    HW2 4614   3.436   3.124   1.909
 1146SOL    HW3 4615   3.377   2.986   1.926
 1146SOL    MW4 4616   3.373   3.066   1.893
 1147SOL     OW 4617   3.160   3.215   2.002
 1147SOL    HW2 4618   3.156   3.297   1.953
 1147SOL    HW3 4619   3.240   3.173   1.970
 1147SOL    MW4 4620   3.170   3.220   1.991
 1148SOL     OW 4621   3.157   3.441   1.852
 1148SOL    HW2 4622   3.236   3.494   1.864
 1148SOL    HW3 4623   3.140   3.447   1.758
 1148SOL    MW4 4624   3.165   3.449   1.841
 1149SOL     OW 4625   3.367   3.583   1.952
 1149SOL    HW2 4626   3.453   3.555   1.923
 1149SOL    HW3 4627   3.363   3.676   1.931
 1149SOL    MW4 4628   3.378   3.591   1.945
 1150SOL     OW 4629   3.381   3.852   1.892
 1150SOL    HW2 4630   3.301   3.904   1.906
 1150SOL    HW3 4631   3.395   3.855   1.798
 1150SOL    MW4 4632   3.372   3.859   1.881
 1151SOL     OW 4633   3.162   4.023   1.957
 1151SOL    HW2 4634   3.164   3.998   2.049
 1151SOL    HW3 4635   3.080   3.986   1.924
 1151SOL    MW4 4636   3.152   4.015   1.965
 1152SOL     OW 4637   3.174   4.276   1.826
 1152SOL    HW2 4638   3.172   4.193   1.874
 1152SOL    HW3 4639   3.101   4.326   1.862
 1152SOL    MW4 4640   3.164   4.271   1.837
 1153SOL     OW 4641   3.418   4.424   1.959
 1153SOL    HW2 4642   3.484   4.365   1.921
 1153SOL    HW3 4643   3.334   4.389   1.927
 1153SOL    MW4 4644   3.416   4.411   1.949
 1154SOL     OW 4645   3.829   4.646   1.840
 1154SOL    HW2 4646   3.811   4.558   1.871
 1154SOL    HW3 4647   3.759   4.700   1.879
 1154SOL    MW4 4648   3.817   4.642   1.849
 1155SOL     OW 4649   3.589   0.121   1.965
 1155SOL    HW2 4650   3.574   0.072   2.046
 1155SOL    HW3 4651   3.522   0.088   1.905
 1155SOL    MW4 4652   3.578   0.110   1.968
 1156SOL     OW 4653   3.563   0.388   1.881
 1156SOL    HW2 4654   3.583   0.301   1.916
 1156SOL    HW3 4655   3.575   0.378   1.786
 1156SOL    MW4 4656   3.567   0.375   1.873
 1157SOL     OW 4657   3.815   0.476   1.949
 1157SOL    HW2 4658   3.829   0.563   1.910
 1157SOL    HW3 4659   3.726   0.453   1.923
 1157SOL    MW4 4660   3.805   0.485   1.940
 1158SOL     OW 4661   3.839   0.763   1.830
 1158SOL    HW2 4662   3.762   0.812   1.861
 1158SOL    HW3 4663   3.837   0.774   1.735
 1158SOL    MW4 4664   3.828   0.771   1.821
 1159SOL     OW 4665   3.614   0.867   1.921
 1159SOL    HW2 4666   3.598   0.960   1.903
 1159SOL    HW3 4667   3.532   0.824   1.901
 1159SOL    MW4 4668   3.601   0.874   1.916
 1160SOL     OW 4669   3.562   1.129   1.866
 1160SOL    HW2 4670   3.482   1.173   1.895
 1160SOL    HW3 4671   3.572   1.157   1.775
 1160SOL    MW4 4672   3.553   1.139   1.858
 1161SOL     OW 4673   3.792   1.258   1.959
 1161SOL    HW2 4674   3.792   1.255   2.055
 1161SOL    HW3 4675   3.709   1.217   1.934
 1161SOL    MW4 4676   3.781   1.252   1.969
 1162SOL     OW 4677   3.801   1.509   1.855
 1162SOL    HW2 4678   3.893   1.534   1.869
 1162SOL    HW3 4679   3.794   1.422   1.894
 1162SOL    MW4 4680   3.812   1.501   1.862
 1163SOL     OW 4681   3.599   1.673   1.949
 1163SOL    HW2 4682   3.606   1.754   1.898
 1163SOL    HW3 4683   3.678   1.624   1.927
 1163SOL    MW4 4684   3.610   1.677   1.939
 1164SOL     OW 4685   3.626   1.918   1.852
 1164SOL    HW2 4686   3.696   1.978   1.879
 1164SOL    HW3 4687   3.634   1.912   1.757
 1164SOL    MW4 4688   3.636   1.925   1.843
 1165SOL     OW 4689   3.828   2.082   1.947
 1165SOL    HW2 4690   3.890   2.018   1.913
 1165SOL    HW3 4691   3.850   2.163   1.902
 1165SOL    MW4 4692   3.839   2.084   1.936
 1166SOL     OW 4693   3.854   2.332   1.812
 1166SOL    HW2 4694   3.927   2.389   1.834
 1166SOL    HW3 4695   3.778   2.372   1.855
 1166SOL    MW4 4696   3.853   2.345   1.821
 1167SOL     OW 4697   3.632   2.447   1.923
 1167SOL    HW2 4698   3.622   2.538   1.895
 1167SOL    HW3 4699   3.550   2.405   1.899
 1167SOL    MW4 4700   3.620   2.453   1.916
 1168SOL     OW 4701   3.594   2.716   1.844
 1168SOL    HW2 4702   3.674   2.756   1.877
 1168SOL    HW3 4703   3.526   2.746   1.904
 1168SOL    MW4 4704   3.595   2.725   1.857
 1169SOL     OW 4705   3.814   2.849   1.967
 1169SOL    HW2 4706   3.814   2.845   2.062
 1169SOL    HW3 4707   3.826   2.942   1.946
 1169SOL    MW4 4708   3.816   2.861   1.977
 1170SOL     OW 4709   3.847   3.103   1.855
 1170SOL    HW2 4710   3.758   3.135   1.874
 1170SOL    HW3 4711   3.855   3.112   1.760
 1170SOL    MW4 4712   3.836   3.109   1.845
 1171SOL     OW 4713   3.600   3.194   1.942
 1171SOL    HW2 4714   3.584   3.186   2.036
 1171SOL    HW3 4715   3.623   3.286   1.930
 1171SOL    MW4 4716   3.601   3.205   1.953
 1172SOL     OW 4717   3.633   3.469   1.893
 1172SOL    HW2 4718   3.714   3.501   1.931
 1172SOL    HW3 4719   3.649   3.468   1.799
 1172SOL    MW4 4720   3.645   3.473   1.886
 1173SOL     OW 4721   3.858   3.598   1.975
 1173SOL    HW2 4722   3.936   3.555   1.939
 1173SOL    HW3 4723   3.852   3.681   1.928
 1173SOL    MW4 4724   3.867   3.604   1.964
 1174SOL     OW 4725   3.817   3.820   1.819
 1174SOL    HW2 4726   3.736   3.851   1.858
 1174SOL    HW3 4727   3.797   3.807   1.727
 1174SOL    MW4 4728   3.804   3.822   1.812
 1175SOL     OW 4729   3.616   3.969   1.961
 1175SOL    HW2 4730   3.625   3.982   2.055
 1175SOL    HW3 4731   3.530   3.929   1.950
 1175SOL    MW4 4732   3.606   3.965   1.972
 1176SOL     OW 4733   3.602   4.236   1.872
 1176SOL    HW2 4734   3.680   4.278   1.909
 1176SOL    HW3 4735   3.605   4.146   1.906
 1176SOL    MW4 4736   3.613   4.229   1.881
 1177SOL     OW 4737   3.828   4.394   1.934
 1177SOL    HW2 4738   3.834   4.390   2.030
 1177SOL    HW3 4739   3.909   4.354   1.904
 1177SOL    MW4 4740   3.840   4.388   1.943
 1178SOL     OW 4741   4.254   4.623   1.813
 1178SOL    HW2 4742   4.178   4.662   1.857
 1178SOL    HW3 4743   4.329   4.671   1.849
 1178SOL    MW4 4744   4.254   4.635   1.823
 1179SOL     OW 4745   4.053   0.104   1.949
 1179SOL    HW2 4746   4.053   0.089   2.043
 1179SOL    HW3 4747   3.981   0.050   1.915
 1179SOL    MW4 4748   4.043   0.095   1.957
 1180SOL     OW 4749   4.028   0.354   1.819
 1180SOL    HW2 4750   4.033   0.268   1.861
 1180SOL    HW3 4751   3.953   0.397   1.861
 1180SOL    MW4 4752   4.019   0.349   1.830
 1181SOL     OW 4753   4.256   0.481   1.952
 1181SOL    HW2 4754   4.249   0.472   2.047
 1181SOL    HW3 4755   4.180   0.434   1.918
 1181SOL    MW4 4756   4.245   0.474   1.960
 1182SOL     OW 4757   4.265   0.737   1.847
 1182SOL    HW2 4758   4.265   0.649   1.885
 1182SOL    HW3 4759   4.260   0.723   1.753
 1182SOL    MW4 4760   4.264   0.724   1.840
 1183SOL     OW 4761   4.050   0.879   1.971
 1183SOL    HW2 4762   4.127   0.839   1.930
 1183SOL    HW3 4763   3.975   0.836   1.930
 1183SOL    MW4 4764   4.050   0.868   1.960
 1184SOL     OW 4765   4.028   1.126   1.858
 1184SOL    HW2 4766   4.042   1.038   1.893
 1184SOL    HW3 4767   3.953   1.159   1.907
 1184SOL    MW4 4768   4.020   1.119   1.869
 1185SOL     OW 4769   4.249   1.271   1.921
 1185SOL    HW2 4770   4.220   1.278   2.012
 1185SOL    HW3 4771   4.176   1.230   1.876
 1185SOL    MW4 4772   4.235   1.267   1.927
 1186SOL     OW 4773   4.287   1.537   1.872
 1186SOL    HW2 4774   4.277   1.443   1.884
 1186SOL    HW3 4775   4.269   1.552   1.779
 1186SOL    MW4 4776   4.284   1.527   1.862
 1187SOL     OW 4777   4.041   1.632   1.954
 1187SOL    HW2 4778   4.033   1.644   2.048
 1187SOL    HW3 4779   4.131   1.601   1.941
 1187SOL    MW4 4780   4.052   1.629   1.965
 1188SOL     OW 4781   4.031   1.904   1.875
 1188SOL    HW2 4782   4.045   1.810   1.890
 1188SOL    HW3 4783   4.048   1.916   1.781
 1188SOL    MW4 4784   4.035   1.893   1.865
 1189SOL     OW 4785   4.270   2.056   1.960
 1189SOL    HW2 4786   4.286   2.061   2.055
 1189SOL    HW3 4787   4.185   2.013   1.953
 1189SOL    MW4 4788   4.261   2.051   1.972
 1190SOL     OW 4789   4.294   2.305   1.855
 1190SOL    HW2 4790   4.273   2.217   1.888
 1190SOL    HW3 4791   4.355   2.341   1.919
 1190SOL    MW4 4792   4.299   2.298   1.868
 1191SOL     OW 4793   4.070   2.459   1.924
 1191SOL    HW2 4794   4.072   2.467   2.020
 1191SOL    HW3 4795   4.151   2.411   1.903
 1191SOL    MW4 4796   4.081   2.454   1.934
 1192SOL     OW 4797   4.039   2.732   1.846
 1192SOL    HW2 4798   4.066   2.650   1.888
 1192SOL    HW3 4799   3.972   2.768   1.904
 1192SOL    MW4 4800   4.034   2.726   1.859
 1193SOL     OW 4801   4.292   2.823   1.940
 1193SOL    HW2 4802   4.292   2.831   2.036
 1193SOL    HW3 4803   4.202   2.801   1.918
 1193SOL    MW4 4804   4.280   2.821   1.950
 1194SOL     OW 4805   4.308   3.088   1.836
 1194SOL    HW2 4806   4.244   3.136   1.889
 1194SOL    HW3 4807   4.298   2.997   1.864
 1194SOL    MW4 4808   4.298   3.083   1.847
 1195SOL     OW 4809   4.096   3.209   1.971
 1195SOL    HW2 4810   4.075   3.225   2.063
 1195SOL    HW3 4811   4.013   3.182   1.931
 1195SOL    MW4 4812   4.083   3.207   1.978
 1196SOL     OW 4813   4.060   3.471   1.863
 1196SOL    HW2 4814   4.128   3.528   1.900
 1196SOL    HW3 4815   4.083   3.383   1.893
 1196SOL    MW4 4816   4.072   3.467   1.872
 1197SOL     OW 4817   4.260   3.610   1.971
 1197SOL    HW2 4818   4.272   3.697   1.934
 1197SOL    HW3 4819   4.333   3.558   1.937
 1197SOL    MW4 4820   4.271   3.614   1.962
 1198SOL     OW 4821   4.267   3.845   1.839
 1198SOL    HW2 4822   4.354   3.865   1.875
 1198SOL    HW3 4823   4.274   3.868   1.747
 1198SOL    MW4 4824   4.279   3.851   1.832
 1199SOL     OW 4825   4.024   3.964   1.948
 1199SOL    HW2 4826   4.106   3.930   1.913
 1199SOL    HW3 4827   3.956   3.920   1.897
 1199SOL    MW4 4828   4.026   3.954   1.937
 1200SOL     OW 4829   4.025   4.228   1.832
 1200SOL    HW2 4830   4.104   4.269   1.867
 1200SOL    HW3 4831   4.017   4.146   1.881
 1200SOL    MW4 4832   4.034   4.223   1.843
 1201SOL     OW 4833   4.254   4.378   1.947
 1201SOL    HW2 4834   4.246   4.395   2.041
 1201SOL    HW3 4835   4.259   4.465   1.907
 1201SOL    MW4 4836   4.254   4.392   1.954
 1202SOL     OW 4837   0.198   4.637   2.297
 1202SOL    HW2 4838   0.199   4.643   2.392
 1202SOL    HW3 4839   0.284   4.669   2.270
 1202SOL    MW4 4840   0.210   4.642   2.306
 1203SOL     OW 4841   4.485   0.129   2.223
 1203SOL    HW2 4842   4.556   0.070   2.249
 1203SOL    HW3 4843   4.477   0.117   2.128
 1203SOL    MW4 4844   4.493   0.120   2.214
 1204SOL     OW 4845   0.008   0.383   2.353
 1204SOL    HW2 4846   0.093   0.419   2.328
 1204SOL    HW3 4847  -0.002   0.304   2.299
 1204SOL    MW4 4848   0.018   0.377   2.342
 1205SOL     OW 4849   0.235   0.507   2.221
 1205SOL    HW2 4850   0.299   0.445   2.255
 1205SOL    HW3 4851   0.221   0.480   2.130
 1205SOL    MW4 4852   0.242   0.495   2.213
 1206SOL     OW 4853   0.190   0.753   2.341
 1206SOL    HW2 4854   0.178   0.752   2.436
 1206SOL    HW3 4855   0.192   0.661   2.316
 1206SOL    MW4 4856   0.189   0.741   2.350
 1207SOL     OW 4857   4.458   0.865   2.226
 1207SOL    HW2 4858   4.528   0.804   2.251
 1207SOL    HW3 4859   4.471   0.880   2.132
 1207SOL    MW4 4860   4.469   0.859   2.217
 1208SOL     OW 4861   4.437   1.137   2.297
 1208SOL    HW2 4862   4.447   1.140   2.392
 1208SOL    HW3 4863   4.450   1.045   2.274
 1208SOL    MW4 4864   4.440   1.126   2.306
 1209SOL     OW 4865   0.175   1.289   2.209
 1209SOL    HW2 4866   0.098   1.238   2.231
 1209SOL    HW3 4867   0.163   1.312   2.116
 1209SOL    MW4 4868   0.163   1.286   2.199
 1210SOL     OW 4869   0.235   1.540   2.332
 1210SOL    HW2 4870   0.229   1.540   2.428
 1210SOL    HW3 4871   0.209   1.452   2.306
 1210SOL    MW4 4872   0.231   1.528   2.341
 1211SOL     OW 4873   4.462   1.642   2.267
 1211SOL    HW2 4874   4.462   1.724   2.316
 1211SOL    HW3 4875   4.550   1.606   2.280
 1211SOL    MW4 4876   4.473   1.648   2.275
 1212SOL     OW 4877   4.464   1.912   2.406
 1212SOL    HW2 4878   4.400   1.964   2.358
 1212SOL    HW3 4879   4.549   1.939   2.372
 1212SOL    MW4 4880   4.466   1.922   2.395
 1213SOL     OW 4881   0.201   2.029   2.284
 1213SOL    HW2 4882   0.279   1.980   2.310
 1213SOL    HW3 4883   0.209   2.039   2.190
 1213SOL    MW4 4884   0.212   2.023   2.275
 1214SOL     OW 4885   0.217   2.307   2.342
 1214SOL    HW2 4886   0.229   2.319   2.436
 1214SOL    HW3 4887   0.206   2.212   2.331
 1214SOL    MW4 4888   0.217   2.296   2.353
 1215SOL     OW 4889   4.480   2.427   2.246
 1215SOL    HW2 4890   4.485   2.521   2.266
 1215SOL    HW3 4891   4.565   2.392   2.274
 1215SOL    MW4 4892   4.492   2.435   2.252
 1216SOL     OW 4893   4.462   2.706   2.304
 1216SOL    HW2 4894   4.453   2.707   2.400
 1216SOL    HW3 4895   4.553   2.733   2.288
 1216SOL    MW4 4896   4.473   2.710   2.315
 1217SOL     OW 4897   0.209   2.833   2.243
 1217SOL    HW2 4898   0.294   2.805   2.276
 1217SOL    HW3 4899   0.223   2.847   2.150
 1217SOL    MW4 4900   0.222   2.831   2.235
 1218SOL     OW 4901   0.242   3.095   2.363
 1218SOL    HW2 4902   0.169   3.139   2.319
 1218SOL    HW3 4903   0.233   3.003   2.338
 1218SOL    MW4 4904   0.231   3.089   2.354
 1219SOL     OW 4905   0.013   3.236   2.267
 1219SOL    HW2 4906  -0.018   3.325   2.281
 1219SOL    HW3 4907   0.015   3.226   2.171
 1219SOL    MW4 4908   0.009   3.246   2.256
 1220SOL     OW 4909   4.471   3.499   2.347
 1220SOL    HW2 4910   4.472   3.488   2.442
 1220SOL    HW3 4911   4.386   3.539   2.328
 1220SOL    MW4 4912   4.460   3.503   2.357
 1221SOL     OW 4913   0.216   3.613   2.235
 1221SOL    HW2 4914   0.286   3.554   2.263
 1221SOL    HW3 4915   0.139   3.581   2.281
 1221SOL    MW4 4916   0.215   3.601   2.245
 1222SOL     OW 4917   0.276   3.869   2.353
 1222SOL    HW2 4918   0.192   3.904   2.325
 1222SOL    HW3 4919   0.276   3.778   2.323
 1222SOL    MW4 4920   0.265   3.861   2.345
 1223SOL     OW 4921   0.033   3.978   2.269
 1223SOL    HW2 4922   0.010   4.063   2.305
 1223SOL    HW3 4923   0.033   3.991   2.174
 1223SOL    MW4 4924   0.030   3.991   2.261
 1224SOL     OW 4925   4.451   4.234   2.325
 1224SOL    HW2 4926   4.441   4.249   2.419
 1224SOL    HW3 4927   4.531   4.281   2.301
 1224SOL    MW4 4928   4.460   4.242   2.334
 1225SOL     OW 4929   0.186   4.382   2.220
 1225SOL    HW2 4930   0.270   4.344   2.244
 1225SOL    HW3 4931   0.184   4.467   2.264
 1225SOL    MW4 4932   0.197   4.388   2.229
 1226SOL     OW 4933   0.656   4.658   2.333
 1226SOL    HW2 4934   0.654   4.665   2.428
 1226SOL    HW3 4935   0.736   4.704   2.307
 1226SOL    MW4 4936   0.667   4.665   2.342
 1227SOL     OW 4937   0.424   0.109   2.235
 1227SOL    HW2 4938   0.505   0.071   2.271
 1227SOL    HW3 4939   0.442   0.119   2.142
 1227SOL    MW4 4940   0.437   0.105   2.227
 1228SOL     OW 4941   0.442   0.364   2.321
 1228SOL    HW2 4942   0.428   0.353   2.415
 1228SOL    HW3 4943   0.435   0.276   2.285
 1228SOL    MW4 4944   0.439   0.351   2.328
 1229SOL     OW 4945   0.664   0.539   2.244
 1229SOL    HW2 4946   0.648   0.624   2.285
 1229SOL    HW3 4947   0.593   0.483   2.275
 1229SOL    MW4 4948   0.653   0.543   2.253
 1230SOL     OW 4949   0.625   0.797   2.348
 1230SOL    HW2 4950   0.623   0.797   2.444
 1230SOL    HW3 4951   0.547   0.846   2.323
 1230SOL    MW4 4952   0.614   0.804   2.358
 1231SOL     OW 4953   0.383   0.909   2.211
 1231SOL    HW2 4954   0.304   0.861   2.238
 1231SOL    HW3 4955   0.399   0.880   2.121
 1231SOL    MW4 4956   0.375   0.899   2.202
 1232SOL     OW 4957   0.415   1.163   2.304
 1232SOL    HW2 4958   0.394   1.074   2.277
 1232SOL    HW3 4959   0.343   1.216   2.270
 1232SOL    MW4 4960   0.403   1.158   2.296
 1233SOL     OW 4961   0.664   1.264   2.245
 1233SOL    HW2 4962   0.661   1.354   2.279
 1233SOL    HW3 4963   0.581   1.226   2.272
 1233SOL    MW4 4964   0.653   1.271   2.253
 1234SOL     OW 4965   0.661   1.540   2.327
 1234SOL    HW2 4966   0.664   1.534   2.423
 1234SOL    HW3 4967   0.749   1.571   2.303
 1234SOL    MW4 4968   0.673   1.544   2.337
 1235SOL     OW 4969   0.448   1.671   2.204
 1235SOL    HW2 4970   0.517   1.625   2.252
 1235SOL    HW3 4971   0.367   1.642   2.245
 1235SOL    MW4 4972   0.446   1.661   2.215
 1236SOL     OW 4973   0.441   1.899   2.345
 1236SOL    HW2 4974   0.510   1.957   2.313
 1236SOL    HW3 4975   0.456   1.816   2.299
 1236SOL    MW4 4976   0.452   1.896   2.334
 1237SOL     OW 4977   0.615   2.112   2.273
 1237SOL    HW2 4978   0.702   2.078   2.293
 1237SOL    HW3 4979   0.605   2.187   2.332
 1237SOL    MW4 4980   0.625   2.118   2.284
 1238SOL     OW 4981   0.620   2.368   2.399
 1238SOL    HW2 4982   0.620   2.357   2.494
 1238SOL    HW3 4983   0.710   2.394   2.378
 1238SOL    MW4 4984   0.632   2.370   2.409
 1239SOL     OW 4985   0.417   2.477   2.253
 1239SOL    HW2 4986   0.483   2.439   2.312
 1239SOL    HW3 4987   0.344   2.415   2.255
 1239SOL    MW4 4988   0.416   2.464   2.261
 1240SOL     OW 4989   0.449   2.726   2.349
 1240SOL    HW2 4990   0.444   2.716   2.444
 1240SOL    HW3 4991   0.438   2.637   2.315
 1240SOL    MW4 4992   0.447   2.713   2.357
 1241SOL     OW 4993   0.672   2.856   2.268
 1241SOL    HW2 4994   0.749   2.805   2.289
 1241SOL    HW3 4995   0.598   2.801   2.293
 1241SOL    MW4 4996   0.672   2.842   2.274
 1242SOL     OW 4997   0.661   3.096   2.405
 1242SOL    HW2 4998   0.597   3.149   2.358
 1242SOL    HW3 4999   0.646   3.007   2.373
 1242SOL    MW4 5000   0.651   3.091   2.394
 1243SOL     OW 5001   0.473   3.230   2.241
 1243SOL    HW2 5002   0.396   3.182   2.273
 1243SOL    HW3 5003   0.464   3.230   2.146
 1243SOL    MW4 5004   0.461   3.224   2.233
 1244SOL     OW 5005   0.439   3.475   2.344
 1244SOL    HW2 5006   0.513   3.535   2.336
 1244SOL    HW3 5007   0.464   3.399   2.292
 1244SOL    MW4 5008   0.452   3.473   2.336
 1245SOL     OW 5009   0.663   3.633   2.277
 1245SOL    HW2 5010   0.675   3.715   2.325
 1245SOL    HW3 5011   0.655   3.659   2.186
 1245SOL    MW4 5012   0.664   3.647   2.272
 1246SOL     OW 5013   0.706   3.887   2.361
 1246SOL    HW2 5014   0.690   3.886   2.455
 1246SOL    HW3 5015   0.638   3.944   2.325
 1246SOL    MW4 5016   0.695   3.894   2.369
 1247SOL     OW 5017   0.509   4.012   2.226
 1247SOL    HW2 5018   0.426   3.984   2.267
 1247SOL    HW3 5019   0.488   4.020   2.133
 1247SOL    MW4 5020   0.495   4.010   2.219
 1248SOL     OW 5021   0.439   4.270   2.320
 1248SOL    HW2 5022   0.513   4.321   2.287
 1248SOL    HW3 5023   0.456   4.181   2.291
 1248SOL    MW4 5024   0.451   4.265   2.311
 1249SOL     OW 5025   0.646   4.401   2.210
 1249SOL    HW2 5026   0.665   4.486   2.249
 1249SOL    HW3 5027   0.643   4.418   2.116
 1249SOL    MW4 5028   0.648   4.414   2.203
 1250SOL     OW 5029   1.074   4.655   2.362
 1250SOL    HW2 5030   1.076   4.645   2.457
 1250SOL    HW3 5031   0.993   4.701   2.344
 1250SOL    MW4 5032   1.064   4.660   2.372
 1251SOL     OW 5033   0.864   0.151   2.266
 1251SOL    HW2 5034   0.873   0.239   2.302
 1251SOL    HW3 5035   0.872   0.162   2.172
 1251SOL    MW4 5036   0.866   0.164   2.258
 1252SOL     OW 5037   0.882   0.407   2.366
 1252SOL    HW2 5038   0.959   0.441   2.319
 1252SOL    HW3 5039   0.810   0.463   2.338
 1252SOL    MW4 5040   0.883   0.419   2.356
 1253SOL     OW 5041   1.113   0.494   2.260
 1253SOL    HW2 5042   1.199   0.453   2.270
 1253SOL    HW3 5043   1.115   0.534   2.173
 1253SOL    MW4 5044   1.125   0.494   2.250
 1254SOL     OW 5045   1.114   0.727   2.407
 1254SOL    HW2 5046   1.049   0.771   2.352
 1254SOL    HW3 5047   1.118   0.638   2.372
 1254SOL    MW4 5048   1.106   0.721   2.395
 1255SOL     OW 5049   0.895   0.855   2.254
 1255SOL    HW2 5050   0.899   0.950   2.265
 1255SOL    HW3 5051   0.808   0.831   2.284
 1255SOL    MW4 5052   0.884   0.864   2.260
 1256SOL     OW 5053   0.874   1.126   2.336
 1256SOL    HW2 5054   0.950   1.178   2.309
 1256SOL    HW3 5055   0.799   1.176   2.305
 1256SOL    MW4 5056   0.874   1.139   2.328
 1257SOL     OW 5057   1.083   1.290   2.237
 1257SOL    HW2 5058   1.160   1.248   2.273
 1257SOL    HW3 5059   1.098   1.293   2.143
 1257SOL    MW4 5060   1.095   1.285   2.229
 1258SOL     OW 5061   1.114   1.548   2.325
 1258SOL    HW2 5062   1.034   1.597   2.304
 1258SOL    HW3 5063   1.095   1.459   2.297
 1258SOL    MW4 5064   1.101   1.543   2.318
 1259SOL     OW 5065   0.880   1.682   2.266
 1259SOL    HW2 5066   0.867   1.776   2.277
 1259SOL    HW3 5067   0.879   1.668   2.171
 1259SOL    MW4 5068   0.878   1.692   2.255
 1260SOL     OW 5069   0.846   1.963   2.337
 1260SOL    HW2 5070   0.847   1.938   2.429
 1260SOL    HW3 5071   0.930   2.007   2.323
 1260SOL    MW4 5072   0.857   1.965   2.347
 1261SOL     OW 5073   1.100   2.056   2.279
 1261SOL    HW2 5074   1.177   2.004   2.300
 1261SOL    HW3 5075   1.094   2.052   2.184
 1261SOL    MW4 5076   1.109   2.049   2.269
 1262SOL     OW 5077   1.105   2.335   2.361
 1262SOL    HW2 5078   1.168   2.391   2.315
 1262SOL    HW3 5079   1.106   2.253   2.313
 1262SOL    MW4 5080   1.114   2.332   2.349
 1263SOL     OW 5081   0.866   2.451   2.288
 1263SOL    HW2 5082   0.939   2.396   2.316
 1263SOL    HW3 5083   0.878   2.458   2.193
 1263SOL    MW4 5084   0.877   2.444   2.279
 1264SOL     OW 5085   0.890   2.717   2.370
 1264SOL    HW2 5086   0.866   2.721   2.462
 1264SOL    HW3 5087   0.878   2.626   2.345
 1264SOL    MW4 5088   0.886   2.706   2.379
 1265SOL     OW 5089   1.116   2.839   2.232
 1265SOL    HW2 5090   1.183   2.795   2.285
 1265SOL    HW3 5091   1.033   2.809   2.269
 1265SOL    MW4 5092   1.114   2.829   2.244
 1266SOL     OW 5093   1.099   3.072   2.383
 1266SOL    HW2 5094   1.028   3.121   2.342
 1266SOL    HW3 5095   1.098   2.987   2.337
 1266SOL    MW4 5096   1.090   3.067   2.371
 1267SOL     OW 5097   0.885   3.203   2.271
 1267SOL    HW2 5098   0.875   3.296   2.290
 1267SOL    HW3 5099   0.810   3.162   2.315
 1267SOL    MW4 5100   0.874   3.210   2.279
 1268SOL     OW 5101   0.896   3.477   2.357
 1268SOL    HW2 5102   0.884   3.450   2.448
 1268SOL    HW3 5103   0.819   3.530   2.337
 1268SOL    MW4 5104   0.884   3.480   2.366
 1269SOL     OW 5105   1.123   3.599   2.225
 1269SOL    HW2 5106   1.202   3.555   2.256
 1269SOL    HW3 5107   1.052   3.559   2.275
 1269SOL    MW4 5108   1.124   3.588   2.236
 1270SOL     OW 5109   1.133   3.846   2.354
 1270SOL    HW2 5110   1.215   3.885   2.323
 1270SOL    HW3 5111   1.131   3.759   2.316
 1270SOL    MW4 5112   1.144   3.840   2.345
 1271SOL     OW 5113   0.923   4.029   2.286
 1271SOL    HW2 5114   1.001   3.980   2.314
 1271SOL    HW3 5115   0.850   3.985   2.329
 1271SOL    MW4 5116   0.924   4.017   2.295
 1272SOL     OW 5117   0.862   4.278   2.363
 1272SOL    HW2 5118   0.879   4.194   2.319
 1272SOL    HW3 5119   0.792   4.318   2.312
 1272SOL    MW4 5120   0.855   4.272   2.350
 1273SOL     OW 5121   1.090   4.400   2.255
 1273SOL    HW2 5122   1.010   4.355   2.282
 1273SOL    HW3 5123   1.085   4.486   2.296
 1273SOL    MW4 5124   1.079   4.406   2.264
 1274SOL     OW 5125   1.536   4.651   2.365
 1274SOL    HW2 5126   1.613   4.684   2.319
 1274SOL    HW3 5127   1.462   4.686   2.316
 1274SOL    MW4 5128   1.537   4.660   2.353
 1275SOL     OW 5129   1.301   0.108   2.265
 1275SOL    HW2 5130   1.318   0.189   2.313
 1275SOL    HW3 5131   1.222   0.072   2.306
 1275SOL    MW4 5132   1.293   0.114   2.277
 1276SOL     OW 5133   1.348   0.377   2.372
 1276SOL    HW2 5134   1.338   0.384   2.467
 1276SOL    HW3 5135   1.432   0.418   2.353
 1276SOL    MW4 5136   1.358   0.383   2.382
 1277SOL     OW 5137   1.566   0.518   2.298
 1277SOL    HW2 5138   1.637   0.464   2.332
 1277SOL    HW3 5139   1.583   0.523   2.204
 1277SOL    MW4 5140   1.578   0.512   2.290
 1278SOL     OW 5141   1.536   0.781   2.416
 1278SOL    HW2 5142   1.622   0.810   2.386
 1278SOL    HW3 5143   1.532   0.689   2.391
 1278SOL    MW4 5144   1.547   0.773   2.409
 1279SOL     OW 5145   1.324   0.871   2.253
 1279SOL    HW2 5146   1.402   0.846   2.303
 1279SOL    HW3 5147   1.252   0.824   2.295
 1279SOL    MW4 5148   1.325   0.861   2.265
 1280SOL     OW 5149   1.304   1.146   2.328
 1280SOL    HW2 5150   1.320   1.146   2.423
 1280SOL    HW3 5151   1.308   1.054   2.303
 1280SOL    MW4 5152   1.307   1.134   2.338
 1281SOL     OW 5153   1.561   1.243   2.240
 1281SOL    HW2 5154   1.473   1.210   2.258
 1281SOL    HW3 5155   1.564   1.254   2.145
 1281SOL    MW4 5156   1.550   1.240   2.230
 1282SOL     OW 5157   1.567   1.508   2.335
 1282SOL    HW2 5158   1.645   1.550   2.299
 1282SOL    HW3 5159   1.572   1.418   2.302
 1282SOL    MW4 5160   1.578   1.502   2.326
 1283SOL     OW 5161   1.357   1.647   2.229
 1283SOL    HW2 5162   1.431   1.602   2.271
 1283SOL    HW3 5163   1.280   1.602   2.264
 1283SOL    MW4 5164   1.357   1.635   2.239
 1284SOL     OW 5165   1.352   1.917   2.331
 1284SOL    HW2 5166   1.420   1.972   2.292
 1284SOL    HW3 5167   1.356   1.835   2.284
 1284SOL    MW4 5168   1.361   1.914   2.320
 1285SOL     OW 5169   1.560   2.072   2.246
 1285SOL    HW2 5170   1.629   2.009   2.267
 1285SOL    HW3 5171   1.555   2.070   2.150
 1285SOL    MW4 5172   1.569   2.063   2.236
 1286SOL     OW 5173   1.565   2.336   2.344
 1286SOL    HW2 5174   1.547   2.350   2.437
 1286SOL    HW3 5175   1.573   2.242   2.335
 1286SOL    MW4 5176   1.563   2.326   2.355
 1287SOL     OW 5177   1.337   2.457   2.230
 1287SOL    HW2 5178   1.414   2.424   2.276
 1287SOL    HW3 5179   1.363   2.456   2.138
 1287SOL    MW4 5180   1.351   2.452   2.224
 1288SOL     OW 5181   1.340   2.726   2.364
 1288SOL    HW2 5182   1.419   2.773   2.339
 1288SOL    HW3 5183   1.349   2.640   2.323
 1288SOL    MW4 5184   1.351   2.721   2.355
 1289SOL     OW 5185   1.558   2.853   2.241
 1289SOL    HW2 5186   1.549   2.947   2.255
 1289SOL    HW3 5187   1.562   2.843   2.146
 1289SOL    MW4 5188   1.557   2.864   2.230
 1290SOL     OW 5189   1.574   3.122   2.303
 1290SOL    HW2 5190   1.588   3.126   2.397
 1290SOL    HW3 5191   1.510   3.190   2.285
 1290SOL    MW4 5192   1.567   3.131   2.313
 1291SOL     OW 5193   1.329   3.244   2.260
 1291SOL    HW2 5194   1.250   3.192   2.276
 1291SOL    HW3 5195   1.348   3.230   2.167
 1291SOL    MW4 5196   1.321   3.236   2.250
 1292SOL     OW 5197   1.378   3.507   2.354
 1292SOL    HW2 5198   1.388   3.508   2.450
 1292SOL    HW3 5199   1.359   3.415   2.333
 1292SOL    MW4 5200   1.377   3.495   2.364
 1293SOL     OW 5201   1.590   3.646   2.244
 1293SOL    HW2 5202   1.594   3.733   2.284
 1293SOL    HW3 5203   1.516   3.604   2.288
 1293SOL    MW4 5204   1.580   3.652   2.255
 1294SOL     OW 5205   1.585   3.900   2.350
 1294SOL    HW2 5206   1.595   3.887   2.445
 1294SOL    HW3 5207   1.674   3.918   2.320
 1294SOL    MW4 5208   1.598   3.900   2.359
 1295SOL     OW 5209   1.338   3.995   2.258
 1295SOL    HW2 5210   1.422   3.968   2.294
 1295SOL    HW3 5211   1.351   3.994   2.163
 1295SOL    MW4 5212   1.351   3.992   2.250
 1296SOL     OW 5213   1.300   4.256   2.378
 1296SOL    HW2 5214   1.306   4.176   2.328
 1296SOL    HW3 5215   1.226   4.304   2.339
 1296SOL    MW4 5216   1.291   4.252   2.366
 1297SOL     OW 5217   1.526   4.376   2.263
 1297SOL    HW2 5218   1.449   4.329   2.297
 1297SOL    HW3 5219   1.537   4.450   2.322
 1297SOL    MW4 5220   1.517   4.379   2.276
 1298SOL     OW 5221   1.994   4.627   2.368
 1298SOL    HW2 5222   2.067   4.674   2.327
 1298SOL    HW3 5223   1.992   4.542   2.324
 1298SOL    MW4 5224   2.003   4.622   2.357
 1299SOL     OW 5225   1.771   0.120   2.255
 1299SOL    HW2 5226   1.774   0.209   2.289
 1299SOL    HW3 5227   1.839   0.074   2.304
 1299SOL    MW4 5228   1.781   0.126   2.266
 1300SOL     OW 5229   1.797   0.372   2.369
 1300SOL    HW2 5230   1.804   0.349   2.462
 1300SOL    HW3 5231   1.869   0.434   2.354
 1300SOL    MW4 5232   1.808   0.377   2.380
 1301SOL     OW 5233   2.009   0.518   2.261
 1301SOL    HW2 5234   2.006   0.607   2.295
 1301SOL    HW3 5235   2.023   0.529   2.167
 1301SOL    MW4 5236   2.010   0.531   2.253
 1302SOL     OW 5237   2.027   0.777   2.362
 1302SOL    HW2 5238   2.093   0.825   2.312
 1302SOL    HW3 5239   1.944   0.813   2.332
 1302SOL    MW4 5240   2.025   0.788   2.351
 1303SOL     OW 5241   1.773   0.859   2.283
 1303SOL    HW2 5242   1.786   0.952   2.301
 1303SOL    HW3 5243   1.773   0.852   2.188
 1303SOL    MW4 5244   1.775   0.871   2.273
 1304SOL     OW 5245   1.772   1.116   2.384
 1304SOL    HW2 5246   1.851   1.164   2.364
 1304SOL    HW3 5247   1.701   1.172   2.353
 1304SOL    MW4 5248   1.773   1.129   2.377
 1305SOL     OW 5249   1.981   1.251   2.296
 1305SOL    HW2 5250   2.005   1.341   2.318
 1305SOL    HW3 5251   1.993   1.245   2.201
 1305SOL    MW4 5252   1.986   1.262   2.286
 1306SOL     OW 5253   2.044   1.520   2.322
 1306SOL    HW2 5254   2.051   1.526   2.417
 1306SOL    HW3 5255   1.958   1.558   2.302
 1306SOL    MW4 5256   2.033   1.526   2.332
 1307SOL     OW 5257   1.802   1.636   2.269
 1307SOL    HW2 5258   1.801   1.726   2.303
 1307SOL    HW3 5259   1.796   1.647   2.174
 1307SOL    MW4 5260   1.801   1.649   2.261
 1308SOL     OW 5261   1.776   1.919   2.320
 1308SOL    HW2 5262   1.755   1.945   2.410
 1308SOL    HW3 5263   1.850   1.974   2.296
 1308SOL    MW4 5264   1.783   1.929   2.329
 1309SOL     OW 5265   1.985   2.060   2.237
 1309SOL    HW2 5266   2.060   2.015   2.276
 1309SOL    HW3 5267   2.005   2.061   2.143
 1309SOL    MW4 5268   1.998   2.054   2.230
 1310SOL     OW 5269   2.003   2.324   2.312
 1310SOL    HW2 5270   2.085   2.373   2.303
 1310SOL    HW3 5271   2.024   2.237   2.279
 1310SOL    MW4 5272   2.017   2.319   2.306
 1311SOL     OW 5273   1.780   2.465   2.210
 1311SOL    HW2 5274   1.858   2.426   2.250
 1311SOL    HW3 5275   1.707   2.417   2.248
 1311SOL    MW4 5276   1.780   2.453   2.220
 1312SOL     OW 5277   1.775   2.710   2.332
 1312SOL    HW2 5278   1.774   2.631   2.278
 1312SOL    HW3 5279   1.695   2.757   2.307
 1312SOL    MW4 5280   1.764   2.706   2.321
 1313SOL     OW 5281   1.995   2.863   2.279
 1313SOL    HW2 5282   2.067   2.806   2.307
 1313SOL    HW3 5283   1.916   2.810   2.293
 1313SOL    MW4 5284   1.994   2.848   2.285
 1314SOL     OW 5285   1.986   3.131   2.340
 1314SOL    HW2 5286   2.064   3.177   2.311
 1314SOL    HW3 5287   2.002   3.040   2.316
 1314SOL    MW4 5288   1.998   3.125   2.333
 1315SOL     OW 5289   1.792   3.268   2.201
 1315SOL    HW2 5290   1.865   3.216   2.236
 1315SOL    HW3 5291   1.714   3.218   2.223
 1315SOL    MW4 5292   1.792   3.254   2.208
 1316SOL     OW 5293   1.809   3.507   2.341
 1316SOL    HW2 5294   1.811   3.426   2.289
 1316SOL    HW3 5295   1.731   3.553   2.310
 1316SOL    MW4 5296   1.799   3.502   2.330
 1317SOL     OW 5297   2.036   3.647   2.219
 1317SOL    HW2 5298   1.950   3.616   2.247
 1317SOL    HW3 5299   2.040   3.626   2.126
 1317SOL    MW4 5300   2.025   3.640   2.211
 1318SOL     OW 5301   2.108   3.883   2.354
 1318SOL    HW2 5302   2.122   3.876   2.448
 1318SOL    HW3 5303   2.078   3.796   2.328
 1318SOL    MW4 5304   2.106   3.871   2.363
 1319SOL     OW 5305   1.847   3.946   2.262
 1319SOL    HW2 5306   1.934   3.945   2.301
 1319SOL    HW3 5307   1.862   3.957   2.169
 1319SOL    MW4 5308   1.860   3.947   2.255
 1320SOL     OW 5309   1.774   4.221   2.317
 1320SOL    HW2 5310   1.765   4.126   2.306
 1320SOL    HW3 5311   1.688   4.256   2.296
 1320SOL    MW4 5312   1.762   4.213   2.313
 1321SOL     OW 5313   2.000   4.360   2.288
 1321SOL    HW2 5314   1.922   4.308   2.307
 1321SOL    HW3 5315   2.010   4.356   2.193
 1321SOL    MW4 5316   1.991   4.352   2.278
 1322SOL     OW 5317   2.465   4.660   2.362
 1322SOL    HW2 5318   2.534   4.712   2.321
 1322SOL    HW3 5319   2.475   4.573   2.323
 1322SOL    MW4 5320   2.475   4.656   2.351
 1323SOL     OW 5321   2.229   0.096   2.249
 1323SOL    HW2 5322   2.229   0.171   2.309
 1323SOL    HW3 5323   2.310   0.049   2.268
 1323SOL    MW4 5324   2.239   0.099   2.260
 1324SOL     OW 5325   2.194   0.338   2.371
 1324SOL    HW2 5326   2.280   0.369   2.342
 1324SOL    HW3 5327   2.135   0.411   2.351
 1324SOL    MW4 5328   2.197   0.352   2.365
 1325SOL     OW 5329   2.423   0.464   2.302
 1325SOL    HW2 5330   2.510   0.424   2.307
 1325SOL    HW3 5331   2.410   0.479   2.208
 1325SOL    MW4 5332   2.433   0.461   2.290
 1326SOL     OW 5333   2.416   0.740   2.355
 1326SOL    HW2 5334   2.501   0.779   2.332
 1326SOL    HW3 5335   2.423   0.649   2.327
 1326SOL    MW4 5336   2.428   0.733   2.349
 1327SOL     OW 5337   2.230   0.899   2.233
 1327SOL    HW2 5338   2.240   0.982   2.280
 1327SOL    HW3 5339   2.297   0.842   2.270
 1327SOL    MW4 5340   2.240   0.902   2.244
 1328SOL     OW 5341   2.221   1.143   2.367
 1328SOL    HW2 5342   2.274   1.215   2.332
 1328SOL    HW3 5343   2.131   1.176   2.364
 1328SOL    MW4 5344   2.216   1.157   2.362
 1329SOL     OW 5345   2.457   1.294   2.253
 1329SOL    HW2 5346   2.517   1.240   2.306
 1329SOL    HW3 5347   2.483   1.384   2.272
 1329SOL    MW4 5348   2.469   1.298   2.262
 1330SOL     OW 5349   2.495   1.544   2.332
 1330SOL    HW2 5350   2.489   1.543   2.428
 1330SOL    HW3 5351   2.574   1.595   2.313
 1330SOL    MW4 5352   2.504   1.551   2.342
 1331SOL     OW 5353   2.253   1.701   2.272
 1331SOL    HW2 5354   2.332   1.650   2.290
 1331SOL    HW3 5355   2.182   1.637   2.273
 1331SOL    MW4 5356   2.254   1.686   2.274
 1332SOL     OW 5357   2.230   1.969   2.334
 1332SOL    HW2 5358   2.309   2.002   2.292
 1332SOL    HW3 5359   2.237   1.874   2.327
 1332SOL    MW4 5360   2.241   1.961   2.328
 1333SOL     OW 5361   2.462   2.076   2.228
 1333SOL    HW2 5362   2.528   2.019   2.267
 1333SOL    HW3 5363   2.491   2.088   2.137
 1333SOL    MW4 5364   2.474   2.070   2.221
 1334SOL     OW 5365   2.474   2.311   2.360
 1334SOL    HW2 5366   2.554   2.352   2.327
 1334SOL    HW3 5367   2.471   2.225   2.318
 1334SOL    MW4 5368   2.484   2.305   2.350
 1335SOL     OW 5369   2.260   2.446   2.252
 1335SOL    HW2 5370   2.255   2.535   2.287
 1335SOL    HW3 5371   2.336   2.408   2.294
 1335SOL    MW4 5372   2.269   2.453   2.262
 1336SOL     OW 5373   2.219   2.711   2.351
 1336SOL    HW2 5374   2.217   2.711   2.447
 1336SOL    HW3 5375   2.298   2.759   2.328
 1336SOL    MW4 5376   2.229   2.717   2.360
 1337SOL     OW 5377   2.444   2.856   2.268
 1337SOL    HW2 5378   2.516   2.799   2.294
 1337SOL    HW3 5379   2.447   2.856   2.172
 1337SOL    MW4 5380   2.454   2.848   2.259
 1338SOL     OW 5381   2.456   3.107   2.349
 1338SOL    HW2 5382   2.546   3.135   2.332
 1338SOL    HW3 5383   2.452   3.018   2.314
 1338SOL    MW4 5384   2.468   3.099   2.342
 1339SOL     OW 5385   2.236   3.241   2.267
 1339SOL    HW2 5386   2.252   3.333   2.290
 1339SOL    HW3 5387   2.306   3.193   2.311
 1339SOL    MW4 5388   2.247   3.247   2.276
 1340SOL     OW 5389   2.269   3.511   2.331
 1340SOL    HW2 5390   2.277   3.514   2.426
 1340SOL    HW3 5391   2.187   3.556   2.312
 1340SOL    MW4 5392   2.259   3.517   2.341
 1341SOL     OW 5393   2.490   3.626   2.232
 1341SOL    HW2 5394   2.473   3.716   2.261
 1341SOL    HW3 5395   2.421   3.574   2.275
 1341SOL    MW4 5396   2.478   3.631   2.242
 1342SOL     OW 5397   2.485   3.886   2.325
 1342SOL    HW2 5398   2.466   3.894   2.418
 1342SOL    HW3 5399   2.423   3.945   2.282
 1342SOL    MW4 5400   2.474   3.895   2.331
 1343SOL     OW 5401   2.287   4.066   2.243
 1343SOL    HW2 5402   2.276   4.152   2.284
 1343SOL    HW3 5403   2.224   4.010   2.288
 1343SOL    MW4 5404   2.277   4.070   2.255
 1344SOL     OW 5405   2.265   4.304   2.355
 1344SOL    HW2 5406   2.264   4.288   2.450
 1344SOL    HW3 5407   2.174   4.326   2.334
 1344SOL    MW4 5408   2.253   4.305   2.365
 1345SOL     OW 5409   2.481   4.413   2.217
 1345SOL    HW2 5410   2.564   4.374   2.244
 1345SOL    HW3 5411   2.415   4.373   2.274
 1345SOL    MW4 5412   2.483   4.403   2.228
 1346SOL     OW 5413   2.950   4.616   2.350
 1346SOL    HW2 5414   3.033   4.654   2.321
 1346SOL    HW3 5415   2.947   4.529   2.310
 1346SOL    MW4 5416   2.960   4.609   2.341
 1347SOL     OW 5417   2.710   0.078   2.241
 1347SOL    HW2 5418   2.710   0.165   2.281
 1347SOL    HW3 5419   2.792   0.039   2.270
 1347SOL    MW4 5420   2.720   0.085   2.250
 1348SOL     OW 5421   2.664   0.331   2.338
 1348SOL    HW2 5422   2.663   0.347   2.432
 1348SOL    HW3 5423   2.745   0.371   2.308
 1348SOL    MW4 5424   2.674   0.338   2.346
 1349SOL     OW 5425   2.896   0.434   2.234
 1349SOL    HW2 5426   2.898   0.524   2.267
 1349SOL    HW3 5427   2.900   0.443   2.139
 1349SOL    MW4 5428   2.897   0.447   2.226
 1350SOL     OW 5429   2.913   0.700   2.329
 1350SOL    HW2 5430   2.917   0.686   2.423
 1350SOL    HW3 5431   2.838   0.759   2.317
 1350SOL    MW4 5432   2.903   0.706   2.340
 1351SOL     OW 5433   2.654   0.861   2.301
 1351SOL    HW2 5434   2.658   0.952   2.330
 1351SOL    HW3 5435   2.664   0.866   2.206
 1351SOL    MW4 5436   2.656   0.874   2.292
 1352SOL     OW 5437   2.671   1.135   2.356
 1352SOL    HW2 5438   2.686   1.153   2.449
 1352SOL    HW3 5439   2.738   1.186   2.311
 1352SOL    MW4 5440   2.682   1.144   2.363
 1353SOL     OW 5441   2.897   1.291   2.263
 1353SOL    HW2 5442   2.971   1.254   2.310
 1353SOL    HW3 5443   2.925   1.291   2.171
 1353SOL    MW4 5444   2.911   1.286   2.257
 1354SOL     OW 5445   2.927   1.553   2.333
 1354SOL    HW2 5446   2.946   1.550   2.427
 1354SOL    HW3 5447   2.909   1.462   2.310
 1354SOL    MW4 5448   2.927   1.540   2.343
 1355SOL     OW 5449   2.713   1.704   2.263
 1355SOL    HW2 5450   2.786   1.656   2.301
 1355SOL    HW3 5451   2.729   1.703   2.168
 1355SOL    MW4 5452   2.725   1.698   2.255
 1356SOL     OW 5453   2.688   1.972   2.321
 1356SOL    HW2 5454   2.681   1.964   2.416
 1356SOL    HW3 5455   2.717   1.886   2.291
 1356SOL    MW4 5456   2.691   1.960   2.329
 1357SOL     OW 5457   2.911   2.091   2.238
 1357SOL    HW2 5458   2.968   2.020   2.271
 1357SOL    HW3 5459   2.823   2.063   2.262
 1357SOL    MW4 5460   2.907   2.078   2.246
 1358SOL     OW 5461   2.907   2.342   2.373
 1358SOL    HW2 5462   2.892   2.321   2.466
 1358SOL    HW3 5463   2.910   2.256   2.330
 1358SOL    MW4 5464   2.906   2.328   2.380
 1359SOL     OW 5465   2.686   2.469   2.279
 1359SOL    HW2 5466   2.765   2.425   2.308
 1359SOL    HW3 5467   2.693   2.471   2.183
 1359SOL    MW4 5468   2.697   2.464   2.270
 1360SOL     OW 5469   2.672   2.727   2.365
 1360SOL    HW2 5470   2.760   2.755   2.340
 1360SOL    HW3 5471   2.675   2.632   2.362
 1360SOL    MW4 5472   2.684   2.718   2.361
 1361SOL     OW 5473   2.918   2.824   2.274
 1361SOL    HW2 5474   2.908   2.913   2.308
 1361SOL    HW3 5475   2.886   2.830   2.183
 1361SOL    MW4 5476   2.912   2.836   2.266
 1362SOL     OW 5477   2.923   3.125   2.358
 1362SOL    HW2 5478   3.008   3.169   2.358
 1362SOL    HW3 5479   2.871   3.174   2.295
 1362SOL    MW4 5480   2.928   3.137   2.349
 1363SOL     OW 5481   2.694   3.246   2.253
 1363SOL    HW2 5482   2.702   3.332   2.294
 1363SOL    HW3 5483   2.711   3.262   2.161
 1363SOL    MW4 5484   2.697   3.259   2.247
 1364SOL     OW 5485   2.711   3.502   2.347
 1364SOL    HW2 5486   2.793   3.535   2.310
 1364SOL    HW3 5487   2.645   3.562   2.311
 1364SOL    MW4 5488   2.713   3.514   2.337
 1365SOL     OW 5489   2.945   3.593   2.221
 1365SOL    HW2 5490   3.016   3.560   2.277
 1365SOL    HW3 5491   2.929   3.681   2.252
 1365SOL    MW4 5492   2.952   3.600   2.232
 1366SOL     OW 5493   2.959   3.867   2.326
 1366SOL    HW2 5494   2.972   3.846   2.419
 1366SOL    HW3 5495   2.884   3.926   2.325
 1366SOL    MW4 5496   2.951   3.872   2.338
 1367SOL     OW 5497   2.718   4.018   2.255
 1367SOL    HW2 5498   2.641   3.963   2.269
 1367SOL    HW3 5499   2.729   4.020   2.160
 1367SOL    MW4 5500   2.709   4.011   2.244
 1368SOL     OW 5501   2.703   4.285   2.314
 1368SOL    HW2 5502   2.687   4.286   2.408
 1368SOL    HW3 5503   2.702   4.192   2.290
 1368SOL    MW4 5504   2.701   4.273   2.323
 1369SOL     OW 5505   2.940   4.377   2.211
 1369SOL    HW2 5506   3.001   4.322   2.261
 1369SOL    HW3 5507   2.853   4.348   2.239
 1369SOL    MW4 5508   2.936   4.366   2.221
 1370SOL     OW 5509   3.361   4.599   2.368
 1370SOL    HW2 5510   3.374   4.613   2.462
 1370SOL    HW3 5511   3.428   4.651   2.326
 1370SOL    MW4 5512   3.371   4.608   2.375
 1371SOL     OW 5513   3.166   0.074   2.226
 1371SOL    HW2 5514   3.161   0.160   2.267
 1371SOL    HW3 5515   3.225   0.024   2.282
 1371SOL    MW4 5516   3.173   0.079   2.239
 1372SOL     OW 5517   3.134   0.320   2.344
 1372SOL    HW2 5518   3.205   0.374   2.310
 1372SOL    HW3 5519   3.054   0.366   2.319
 1372SOL    MW4 5520   3.133   0.333   2.336
 1373SOL     OW 5521   3.336   0.469   2.236
 1373SOL    HW2 5522   3.417   0.428   2.267
 1373SOL    HW3 5523   3.329   0.442   2.144
 1373SOL    MW4 5524   3.346   0.460   2.228
 1374SOL     OW 5525   3.382   0.731   2.355
 1374SOL    HW2 5526   3.447   0.780   2.304
 1374SOL    HW3 5527   3.372   0.649   2.307
 1374SOL    MW4 5528   3.390   0.727   2.342
 1375SOL     OW 5529   3.143   0.869   2.274
 1375SOL    HW2 5530   3.222   0.818   2.293
 1375SOL    HW3 5531   3.071   0.809   2.295
 1375SOL    MW4 5532   3.144   0.854   2.279
 1376SOL     OW 5533   3.157   1.151   2.337
 1376SOL    HW2 5534   3.232   1.207   2.317
 1376SOL    HW3 5535   3.181   1.066   2.301
 1376SOL    MW4 5536   3.170   1.147   2.330
 1377SOL     OW 5537   3.361   1.318   2.233
 1377SOL    HW2 5538   3.434   1.265   2.265
 1377SOL    HW3 5539   3.373   1.403   2.275
 1377SOL    MW4 5540   3.372   1.322   2.243
 1378SOL     OW 5541   3.370   1.574   2.364
 1378SOL    HW2 5542   3.387   1.569   2.458
 1378SOL    HW3 5543   3.285   1.617   2.356
 1378SOL    MW4 5544   3.361   1.579   2.375
 1379SOL     OW 5545   3.164   1.683   2.235
 1379SOL    HW2 5546   3.144   1.772   2.264
 1379SOL    HW3 5547   3.089   1.631   2.262
 1379SOL    MW4 5548   3.152   1.688   2.243
 1380SOL     OW 5549   3.111   1.930   2.358
 1380SOL    HW2 5550   3.105   1.908   2.451
 1380SOL    HW3 5551   3.199   1.967   2.348
 1380SOL    MW4 5552   3.122   1.932   2.369
 1381SOL     OW 5553   3.356   2.047   2.285
 1381SOL    HW2 5554   3.432   2.011   2.331
 1381SOL    HW3 5555   3.374   2.030   2.193
 1381SOL    MW4 5556   3.368   2.040   2.279
 1382SOL     OW 5557   3.406   2.310   2.331
 1382SOL    HW2 5558   3.316   2.337   2.313
 1382SOL    HW3 5559   3.413   2.222   2.294
 1382SOL    MW4 5560   3.395   2.302   2.324
 1383SOL     OW 5561   3.136   2.449   2.258
 1383SOL    HW2 5562   3.143   2.543   2.275
 1383SOL    HW3 5563   3.065   2.419   2.314
 1383SOL    MW4 5564   3.128   2.457   2.268
 1384SOL     OW 5565   3.176   2.719   2.314
 1384SOL    HW2 5566   3.182   2.725   2.409
 1384SOL    HW3 5567   3.087   2.746   2.294
 1384SOL    MW4 5568   3.165   2.723   2.324
 1385SOL     OW 5569   3.403   2.861   2.262
 1385SOL    HW2 5570   3.399   2.946   2.306
 1385SOL    HW3 5571   3.319   2.820   2.281
 1385SOL    MW4 5572   3.391   2.867   2.270
 1386SOL     OW 5573   3.409   3.113   2.400
 1386SOL    HW2 5574   3.482   3.144   2.347
 1386SOL    HW3 5575   3.333   3.159   2.365
 1386SOL    MW4 5576   3.408   3.123   2.388
 1387SOL     OW 5577   3.166   3.227   2.288
 1387SOL    HW2 5578   3.178   3.321   2.293
 1387SOL    HW3 5579   3.158   3.208   2.194
 1387SOL    MW4 5580   3.166   3.237   2.276
 1388SOL     OW 5581   3.175   3.492   2.348
 1388SOL    HW2 5582   3.183   3.504   2.442
 1388SOL    HW3 5583   3.254   3.531   2.312
 1388SOL    MW4 5584   3.186   3.499   2.356
 1389SOL     OW 5585   3.386   3.632   2.221
 1389SOL    HW2 5586   3.461   3.581   2.252
 1389SOL    HW3 5587   3.385   3.617   2.127
 1389SOL    MW4 5588   3.395   3.623   2.213
 1390SOL     OW 5589   3.411   3.853   2.373
 1390SOL    HW2 5590   3.492   3.896   2.346
 1390SOL    HW3 5591   3.408   3.772   2.321
 1390SOL    MW4 5592   3.421   3.848   2.363
 1391SOL     OW 5593   3.191   3.987   2.237
 1391SOL    HW2 5594   3.270   3.938   2.261
 1391SOL    HW3 5595   3.119   3.937   2.275
 1391SOL    MW4 5596   3.192   3.974   2.245
 1392SOL     OW 5597   3.146   4.250   2.339
 1392SOL    HW2 5598   3.228   4.296   2.319
 1392SOL    HW3 5599   3.162   4.160   2.310
 1392SOL    MW4 5600   3.159   4.244   2.333
 1393SOL     OW 5601   3.389   4.336   2.251
 1393SOL    HW2 5602   3.384   4.421   2.295
 1393SOL    HW3 5603   3.389   4.358   2.158
 1393SOL    MW4 5604   3.388   4.350   2.244
 1394SOL     OW 5605   3.818   4.628   2.337
 1394SOL    HW2 5606   3.820   4.623   2.432
 1394SOL    HW3 5607   3.893   4.683   2.315
 1394SOL    MW4 5608   3.828   4.634   2.346
 1395SOL     OW 5609   3.575   0.058   2.251
 1395SOL    HW2 5610   3.572   0.152   2.271
 1395SOL    HW3 5611   3.655   0.026   2.293
 1395SOL    MW4 5612   3.585   0.066   2.259
 1396SOL     OW 5613   3.569   0.336   2.317
 1396SOL    HW2 5614   3.583   0.342   2.412
 1396SOL    HW3 5615   3.651   0.366   2.279
 1396SOL    MW4 5616   3.581   0.341   2.324
 1397SOL     OW 5617   3.798   0.463   2.245
 1397SOL    HW2 5618   3.792   0.551   2.282
 1397SOL    HW3 5619   3.801   0.477   2.150
 1397SOL    MW4 5620   3.798   0.476   2.237
 1398SOL     OW 5621   3.775   0.723   2.332
 1398SOL    HW2 5622   3.783   0.721   2.427
 1398SOL    HW3 5623   3.860   0.757   2.302
 1398SOL    MW4 5624   3.788   0.727   2.340
 1399SOL     OW 5625   3.567   0.894   2.222
 1399SOL    HW2 5626   3.646   0.862   2.266
 1399SOL    HW3 5627   3.578   0.868   2.131
 1399SOL    MW4 5628   3.579   0.886   2.216
 1400SOL     OW 5629   3.542   1.153   2.363
 1400SOL    HW2 5630   3.551   1.143   2.457
 1400SOL    HW3 5631   3.559   1.066   2.327
 1400SOL    MW4 5632   3.546   1.141   2.371
 1401SOL     OW 5633   3.770   1.264   2.243
 1401SOL    HW2 5634   3.774   1.359   2.254
 1401SOL    HW3 5635   3.688   1.237   2.285
 1401SOL    MW4 5636   3.760   1.273   2.250
 1402SOL     OW 5637   3.793   1.522   2.323
 1402SOL    HW2 5638   3.802   1.523   2.418
 1402SOL    HW3 5639   3.721   1.583   2.305
 1402SOL    MW4 5640   3.785   1.530   2.333
 1403SOL     OW 5641   3.598   1.682   2.229
 1403SOL    HW2 5642   3.518   1.649   2.270
 1403SOL    HW3 5643   3.582   1.673   2.135
 1403SOL    MW4 5644   3.585   1.677   2.222
 1404SOL     OW 5645   3.613   1.939   2.366
 1404SOL    HW2 5646   3.675   2.006   2.340
 1404SOL    HW3 5647   3.639   1.861   2.316
 1404SOL    MW4 5648   3.624   1.937   2.356
 1405SOL     OW 5649   3.805   2.099   2.244
 1405SOL    HW2 5650   3.880   2.042   2.259
 1405SOL    HW3 5651   3.797   2.102   2.148
 1405SOL    MW4 5652   3.814   2.092   2.233
 1406SOL     OW 5653   3.830   2.364   2.350
 1406SOL    HW2 5654   3.746   2.387   2.311
 1406SOL    HW3 5655   3.847   2.275   2.320
 1406SOL    MW4 5656   3.821   2.355   2.341
 1407SOL     OW 5657   3.610   2.453   2.210
 1407SOL    HW2 5658   3.532   2.406   2.240
 1407SOL    HW3 5659   3.604   2.451   2.114
 1407SOL    MW4 5660   3.599   2.447   2.201
 1408SOL     OW 5661   3.615   2.709   2.333
 1408SOL    HW2 5662   3.612   2.632   2.277
 1408SOL    HW3 5663   3.550   2.769   2.296
 1408SOL    MW4 5664   3.606   2.707   2.321
 1409SOL     OW 5665   3.833   2.835   2.248
 1409SOL    HW2 5666   3.839   2.924   2.282
 1409SOL    HW3 5667   3.754   2.799   2.290
 1409SOL    MW4 5668   3.823   2.842   2.258
 1410SOL     OW 5669   3.835   3.096   2.347
 1410SOL    HW2 5670   3.852   3.110   2.440
 1410SOL    HW3 5671   3.900   3.150   2.302
 1410SOL    MW4 5672   3.846   3.105   2.353
 1411SOL     OW 5673   3.598   3.208   2.216
 1411SOL    HW2 5674   3.587   3.291   2.261
 1411SOL    HW3 5675   3.674   3.167   2.259
 1411SOL    MW4 5676   3.607   3.213   2.228
 1412SOL     OW 5677   3.580   3.460   2.350
 1412SOL    HW2 5678   3.583   3.455   2.446
 1412SOL    HW3 5679   3.666   3.494   2.326
 1412SOL    MW4 5680   3.592   3.464   2.360
 1413SOL     OW 5681   3.827   3.564   2.246
 1413SOL    HW2 5682   3.832   3.643   2.299
 1413SOL    HW3 5683   3.840   3.594   2.156
 1413SOL    MW4 5684   3.829   3.578   2.241
 1414SOL     OW 5685   3.862   3.798   2.355
 1414SOL    HW2 5686   3.848   3.827   2.445
 1414SOL    HW3 5687   3.919   3.864   2.316
 1414SOL    MW4 5688   3.867   3.811   2.362
 1415SOL     OW 5689   3.638   3.979   2.247
 1415SOL    HW2 5690   3.625   4.062   2.292
 1415SOL    HW3 5691   3.714   3.940   2.290
 1415SOL    MW4 5692   3.646   3.985   2.259
 1416SOL     OW 5693   3.618   4.238   2.346
 1416SOL    HW2 5694   3.685   4.291   2.304
 1416SOL    HW3 5695   3.536   4.275   2.316
 1416SOL    MW4 5696   3.616   4.250   2.337
 1417SOL     OW 5697   3.814   4.371   2.212
 1417SOL    HW2 5698   3.899   4.338   2.242
 1417SOL    HW3 5699   3.805   4.457   2.252
 1417SOL    MW4 5700   3.824   4.378   2.221
 1418SOL     OW 5701   4.284   4.657   2.317
 1418SOL    HW2 5702   4.279   4.671   2.411
 1418SOL    HW3 5703   4.357   4.711   2.288
 1418SOL    MW4 5704   4.293   4.666   2.326
 1419SOL     OW 5705   4.034   0.091   2.248
 1419SOL    HW2 5706   4.033   0.181   2.281
 1419SOL    HW3 5707   4.124   0.060   2.265
 1419SOL    MW4 5708   4.046   0.099   2.254
 1420SOL     OW 5709   4.043   0.332   2.391
 1420SOL    HW2 5710   4.112   0.383   2.349
 1420SOL    HW3 5711   3.963   0.382   2.375
 1420SOL    MW4 5712   4.041   0.345   2.383
 1421SOL     OW 5713   4.249   0.475   2.251
 1421SOL    HW2 5714   4.231   0.567   2.269
 1421SOL    HW3 5715   4.339   0.461   2.282
 1421SOL    MW4 5716   4.259   0.485   2.258
 1422SOL     OW 5717   4.239   0.732   2.341
 1422SOL    HW2 5718   4.171   0.789   2.305
 1422SOL    HW3 5719   4.321   0.772   2.313
 1422SOL    MW4 5720   4.241   0.745   2.333
 1423SOL     OW 5721   4.024   0.862   2.245
 1423SOL    HW2 5722   4.013   0.949   2.283
 1423SOL    HW3 5723   4.034   0.878   2.152
 1423SOL    MW4 5724   4.024   0.876   2.238
 1424SOL     OW 5725   4.004   1.126   2.347
 1424SOL    HW2 5726   3.999   1.115   2.442
 1424SOL    HW3 5727   3.917   1.156   2.321
 1424SOL    MW4 5728   3.992   1.129   2.356
 1425SOL     OW 5729   4.227   1.285   2.201
 1425SOL    HW2 5730   4.151   1.252   2.249
 1425SOL    HW3 5731   4.298   1.224   2.225
 1425SOL    MW4 5732   4.227   1.272   2.211
 1426SOL     OW 5733   4.231   1.532   2.331
 1426SOL    HW2 5734   4.238   1.444   2.294
 1426SOL    HW3 5735   4.312   1.576   2.305
 1426SOL    MW4 5736   4.243   1.526   2.323
 1427SOL     OW 5737   4.016   1.679   2.239
 1427SOL    HW2 5738   4.092   1.634   2.277
 1427SOL    HW3 5739   3.940   1.638   2.280
 1427SOL    MW4 5740   4.016   1.668   2.249
 1428SOL     OW 5741   4.010   1.942   2.319
 1428SOL    HW2 5742   4.015   1.931   2.414
 1428SOL    HW3 5743   4.011   1.853   2.285
 1428SOL    MW4 5744   4.011   1.929   2.327
 1429SOL     OW 5745   4.272   2.045   2.249
 1429SOL    HW2 5746   4.259   2.137   2.273
 1429SOL    HW3 5747   4.194   2.000   2.282
 1429SOL    MW4 5748   4.260   2.051   2.257
 1430SOL     OW 5749   4.222   2.315   2.293
 1430SOL    HW2 5750   4.155   2.377   2.267
 1430SOL    HW3 5751   4.303   2.348   2.254
 1430SOL    MW4 5752   4.224   2.327   2.285
 1431SOL     OW 5753   4.022   2.497   2.205
 1431SOL    HW2 5754   4.029   2.571   2.266
 1431SOL    HW3 5755   3.943   2.450   2.234
 1431SOL    MW4 5756   4.012   2.501   2.217
 1432SOL     OW 5757   4.069   2.745   2.358
 1432SOL    HW2 5758   4.082   2.746   2.453
 1432SOL    HW3 5759   3.979   2.775   2.345
 1432SOL    MW4 5760   4.059   2.749   2.369
 1433SOL     OW 5761   4.271   2.858   2.205
 1433SOL    HW2 5762   4.201   2.834   2.264
 1433SOL    HW3 5763   4.348   2.812   2.239
 1433SOL    MW4 5764   4.272   2.849   2.217
 1434SOL     OW 5765   4.270   3.106   2.332
 1434SOL    HW2 5766   4.270   3.013   2.309
 1434SOL    HW3 5767   4.352   3.140   2.294
 1434SOL    MW4 5768   4.281   3.098   2.324
 1435SOL     OW 5769   4.042   3.227   2.232
 1435SOL    HW2 5770   4.038   3.307   2.284
 1435SOL    HW3 5771   4.120   3.182   2.263
 1435SOL    MW4 5772   4.051   3.231   2.243
 1436SOL     OW 5773   4.046   3.460   2.358
 1436SOL    HW2 5774   4.115   3.512   2.318
 1436SOL    HW3 5775   3.965   3.506   2.334
 1436SOL    MW4 5776   4.044   3.473   2.350
 1437SOL     OW 5777   4.233   3.621   2.254
 1437SOL    HW2 5778   4.240   3.707   2.294
 1437SOL    HW3 5779   4.244   3.637   2.160
 1437SOL    MW4 5780   4.235   3.634   2.247
 1438SOL     OW 5781   4.266   3.881   2.323
 1438SOL    HW2 5782   4.254   3.880   2.418
 1438SOL    HW3 5783   4.357   3.908   2.311
 1438SOL    MW4 5784   4.276   3.885   2.334
 1439SOL     OW 5785   4.028   3.997   2.233
 1439SOL    HW2 5786   4.117   3.977   2.262
 1439SOL    HW3 5787   4.034   3.997   2.137
 1439SOL    MW4 5788   4.041   3.994   2.224
 1440SOL     OW 5789   4.032   4.261   2.332
 1440SOL    HW2 5790   4.110   4.300   2.294
 1440SOL    HW3 5791   4.028   4.173   2.293
 1440SOL    MW4 5792   4.042   4.254   2.322
 1441SOL     OW 5793   4.261   4.388   2.230
 1441SOL    HW2 5794   4.279   4.472   2.272
 1441SOL    HW3 5795   4.332   4.330   2.259
 1441SOL    MW4 5796   4.273   4.391   2.239
 1442SOL     OW 5797   0.173   4.627   2.583
 1442SOL    HW2 5798   0.168   4.547   2.636
 1442SOL    HW3 5799   0.118   4.690   2.628
 1442SOL    MW4 5800   0.165   4.625   2.596
 1443SOL     OW 5801   4.445   0.143   2.724
 1443SOL    HW2 5802   4.439   0.159   2.818
 1443SOL    HW3 5803   4.427   0.228   2.683
 1443SOL    MW4 5804   4.442   0.156   2.731
 1444SOL     OW 5805   4.437   0.407   2.609
 1444SOL    HW2 5806   4.515   0.440   2.654
 1444SOL    HW3 5807   4.463   0.401   2.517
 1444SOL    MW4 5808   4.451   0.410   2.603
 1445SOL     OW 5809   0.202   0.491   2.725
 1445SOL    HW2 5810   0.234   0.499   2.814
 1445SOL    HW3 5811   0.270   0.441   2.679
 1445SOL    MW4 5812   0.215   0.485   2.730
 1446SOL     OW 5813   0.211   0.751   2.631
 1446SOL    HW2 5814   0.290   0.795   2.663
 1446SOL    HW3 5815   0.211   0.666   2.675
 1446SOL    MW4 5816   0.221   0.746   2.641
 1447SOL     OW 5817   4.476   0.903   2.714
 1447SOL    HW2 5818   4.396   0.872   2.671
 1447SOL    HW3 5819   4.547   0.863   2.663
 1447SOL    MW4 5820   4.475   0.893   2.701
 1448SOL     OW 5821   4.480   1.144   2.583
 1448SOL    HW2 5822   4.558   1.196   2.602
 1448SOL    HW3 5823   4.488   1.067   2.638
 1448SOL    MW4 5824   4.491   1.141   2.593
 1449SOL     OW 5825   0.203   1.283   2.728
 1449SOL    HW2 5826   0.270   1.234   2.679
 1449SOL    HW3 5827   0.213   1.373   2.698
 1449SOL    MW4 5828   0.214   1.288   2.717
 1450SOL     OW 5829   0.220   1.538   2.611
 1450SOL    HW2 5830   0.291   1.596   2.641
 1450SOL    HW3 5831   0.140   1.583   2.637
 1450SOL    MW4 5832   0.219   1.552   2.619
 1451SOL     OW 5833   4.479   1.669   2.720
 1451SOL    HW2 5834   4.468   1.643   2.811
 1451SOL    HW3 5835   4.478   1.764   2.722
 1451SOL    MW4 5836   4.478   1.678   2.732
 1452SOL     OW 5837   4.453   1.938   2.687
 1452SOL    HW2 5838   4.528   1.996   2.695
 1452SOL    HW3 5839   4.445   1.920   2.593
 1452SOL    MW4 5840   4.462   1.943   2.676
 1453SOL     OW 5841   0.212   2.106   2.678
 1453SOL    HW2 5842   0.286   2.067   2.632
 1453SOL    HW3 5843   0.220   2.200   2.659
 1453SOL    MW4 5844   0.223   2.114   2.669
 1454SOL     OW 5845   0.206   2.380   2.610
 1454SOL    HW2 5846   0.276   2.426   2.657
 1454SOL    HW3 5847   0.126   2.414   2.649
 1454SOL    MW4 5848   0.205   2.391   2.621
 1455SOL     OW 5849   4.459   2.493   2.684
 1455SOL    HW2 5850   4.456   2.488   2.779
 1455SOL    HW3 5851   4.399   2.425   2.654
 1455SOL    MW4 5852   4.451   2.483   2.693
 1456SOL     OW 5853   0.011   2.738   2.580
 1456SOL    HW2 5854  -0.047   2.793   2.634
 1456SOL    HW3 5855  -0.016   2.649   2.601
 1456SOL    MW4 5856   0.000   2.734   2.590
 1457SOL     OW 5857   0.211   2.846   2.742
 1457SOL    HW2 5858   0.199   2.937   2.716
 1457SOL    HW3 5859   0.149   2.796   2.689
 1457SOL    MW4 5860   0.201   2.851   2.732
 1458SOL     OW 5861   0.213   3.106   2.650
 1458SOL    HW2 5862   0.299   3.136   2.679
 1458SOL    HW3 5863   0.219   3.105   2.554
 1458SOL    MW4 5864   0.225   3.109   2.641
 1459SOL     OW 5865   4.476   3.260   2.760
 1459SOL    HW2 5866   4.401   3.202   2.744
 1459SOL    HW3 5867   4.552   3.210   2.728
 1459SOL    MW4 5868   4.476   3.245   2.753
 1460SOL     OW 5869   4.467   3.501   2.620
 1460SOL    HW2 5870   4.550   3.545   2.639
 1460SOL    HW3 5871   4.477   3.414   2.660
 1460SOL    MW4 5872   4.479   3.495   2.628
 1461SOL     OW 5873   0.209   3.608   2.751
 1461SOL    HW2 5874   0.238   3.612   2.842
 1461SOL    HW3 5875   0.277   3.559   2.705
 1461SOL    MW4 5876   0.222   3.602   2.757
 1462SOL     OW 5877   0.226   3.870   2.647
 1462SOL    HW2 5878   0.213   3.785   2.689
 1462SOL    HW3 5879   0.234   3.849   2.554
 1462SOL    MW4 5880   0.225   3.856   2.640
 1463SOL     OW 5881   4.463   4.004   2.719
 1463SOL    HW2 5882   4.468   4.095   2.689
 1463SOL    HW3 5883   4.550   3.968   2.700
 1463SOL    MW4 5884   4.475   4.011   2.713
 1464SOL     OW 5885   4.467   4.245   2.608
 1464SOL    HW2 5886   4.398   4.299   2.647
 1464SOL    HW3 5887   4.548   4.294   2.626
 1464SOL    MW4 5888   4.468   4.259   2.616
 1465SOL     OW 5889   0.188   4.394   2.750
 1465SOL    HW2 5890   0.188   4.393   2.845
 1465SOL    HW3 5891   0.265   4.344   2.725
 1465SOL    MW4 5892   0.198   4.388   2.759
 1466SOL     OW 5893   0.667   4.658   2.617
 1466SOL    HW2 5894   0.745   4.692   2.660
 1466SOL    HW3 5895   0.594   4.696   2.666
 1466SOL    MW4 5896   0.667   4.668   2.629
 1467SOL     OW 5897   0.415   0.095   2.686
 1467SOL    HW2 5898   0.413   0.101   2.782
 1467SOL    HW3 5899   0.350   0.028   2.666
 1467SOL    MW4 5900   0.406   0.087   2.696
 1468SOL     OW 5901   0.419   0.363   2.613
 1468SOL    HW2 5902   0.498   0.397   2.653
 1468SOL    HW3 5903   0.414   0.272   2.644
 1468SOL    MW4 5904   0.429   0.355   2.622
 1469SOL     OW 5905   0.630   0.487   2.734
 1469SOL    HW2 5906   0.640   0.502   2.828
 1469SOL    HW3 5907   0.703   0.429   2.711
 1469SOL    MW4 5908   0.641   0.481   2.743
 1470SOL     OW 5909   0.615   0.759   2.625
 1470SOL    HW2 5910   0.698   0.792   2.661
 1470SOL    HW3 5911   0.610   0.669   2.656
 1470SOL    MW4 5912   0.625   0.752   2.634
 1471SOL     OW 5913   0.414   0.912   2.729
 1471SOL    HW2 5914   0.415   0.991   2.675
 1471SOL    HW3 5915   0.490   0.861   2.700
 1471SOL    MW4 5916   0.424   0.915   2.718
 1472SOL     OW 5917   0.419   1.168   2.578
 1472SOL    HW2 5918   0.498   1.219   2.591
 1472SOL    HW3 5919   0.411   1.160   2.483
 1472SOL    MW4 5920   0.428   1.174   2.567
 1473SOL     OW 5921   0.655   1.302   2.686
 1473SOL    HW2 5922   0.654   1.301   2.782
 1473SOL    HW3 5923   0.737   1.258   2.662
 1473SOL    MW4 5924   0.666   1.296   2.695
 1474SOL     OW 5925   0.660   1.557   2.604
 1474SOL    HW2 5926   0.581   1.610   2.617
 1474SOL    HW3 5927   0.638   1.472   2.641
 1474SOL    MW4 5928   0.647   1.553   2.610
 1475SOL     OW 5929   0.441   1.683   2.689
 1475SOL    HW2 5930   0.436   1.663   2.782
 1475SOL    HW3 5931   0.437   1.779   2.685
 1475SOL    MW4 5932   0.440   1.693   2.701
 1476SOL     OW 5933   0.439   1.976   2.612
 1476SOL    HW2 5934   0.515   2.020   2.650
 1476SOL    HW3 5935   0.459   1.970   2.519
 1476SOL    MW4 5936   0.452   1.981   2.605
 1477SOL     OW 5937   0.665   2.078   2.715
 1477SOL    HW2 5938   0.668   2.059   2.808
 1477SOL    HW3 5939   0.730   2.019   2.676
 1477SOL    MW4 5940   0.674   2.068   2.722
 1478SOL     OW 5941   0.638   2.359   2.670
 1478SOL    HW2 5942   0.728   2.384   2.690
 1478SOL    HW3 5943   0.631   2.268   2.701
 1478SOL    MW4 5944   0.649   2.350   2.676
 1479SOL     OW 5945   0.408   2.499   2.757
 1479SOL    HW2 5946   0.404   2.582   2.709
 1479SOL    HW3 5947   0.486   2.455   2.723
 1479SOL    MW4 5948   0.418   2.504   2.746
 1480SOL     OW 5949   0.436   2.737   2.619
 1480SOL    HW2 5950   0.513   2.768   2.666
 1480SOL    HW3 5951   0.362   2.765   2.672
 1480SOL    MW4 5952   0.436   2.745   2.632
 1481SOL     OW 5953   0.662   2.821   2.756
 1481SOL    HW2 5954   0.647   2.816   2.851
 1481SOL    HW3 5955   0.659   2.914   2.736
 1481SOL    MW4 5956   0.660   2.832   2.766
 1482SOL     OW 5957   0.681   3.079   2.686
 1482SOL    HW2 5958   0.766   3.118   2.707
 1482SOL    HW3 5959   0.671   3.093   2.591
 1482SOL    MW4 5960   0.691   3.086   2.676
 1483SOL     OW 5961   0.448   3.200   2.762
 1483SOL    HW2 5962   0.457   3.220   2.855
 1483SOL    HW3 5963   0.526   3.149   2.741
 1483SOL    MW4 5964   0.460   3.196   2.771
 1484SOL     OW 5965   0.414   3.449   2.629
 1484SOL    HW2 5966   0.435   3.367   2.673
 1484SOL    HW3 5967   0.420   3.429   2.536
 1484SOL    MW4 5968   0.417   3.436   2.622
 1485SOL     OW 5969   0.644   3.615   2.687
 1485SOL    HW2 5970   0.643   3.625   2.782
 1485SOL    HW3 5971   0.563   3.566   2.669
 1485SOL    MW4 5972   0.633   3.610   2.697
 1486SOL     OW 5973   0.664   3.887   2.620
 1486SOL    HW2 5974   0.596   3.934   2.669
 1486SOL    HW3 5975   0.650   3.795   2.642
 1486SOL    MW4 5976   0.653   3.881   2.629
 1487SOL     OW 5977   0.458   4.024   2.734
 1487SOL    HW2 5978   0.431   4.112   2.711
 1487SOL    HW3 5979   0.383   3.969   2.710
 1487SOL    MW4 5980   0.445   4.028   2.728
 1488SOL     OW 5981   0.426   4.269   2.626
 1488SOL    HW2 5982   0.506   4.314   2.651
 1488SOL    HW3 5983   0.439   4.245   2.534
 1488SOL    MW4 5984   0.438   4.271   2.617
 1489SOL     OW 5985   0.662   4.411   2.706
 1489SOL    HW2 5986   0.750   4.385   2.679
 1489SOL    HW3 5987   0.653   4.501   2.676
 1489SOL    MW4 5988   0.673   4.419   2.699
 1490SOL     OW 5989   1.113   4.610   2.638
 1490SOL    HW2 5990   1.196   4.655   2.653
 1490SOL    HW3 5991   1.130   4.520   2.664
 1490SOL    MW4 5992   1.127   4.604   2.643
 1491SOL     OW 5993   0.891   0.065   2.738
 1491SOL    HW2 5994   0.914   0.085   2.829
 1491SOL    HW3 5995   0.966   0.016   2.704
 1491SOL    MW4 5996   0.904   0.062   2.745
 1492SOL     OW 5997   0.865   0.355   2.658
 1492SOL    HW2 5998   0.881   0.261   2.668
 1492SOL    HW3 5999   0.875   0.371   2.564
 1492SOL    MW4 6000   0.869   0.344   2.647
 1493SOL     OW 6001   1.089   0.471   2.780
 1493SOL    HW2 6002   1.088   0.563   2.753
 1493SOL    HW3 6003   1.003   0.438   2.754
 1493SOL    MW4 6004   1.077   0.478   2.773
 1494SOL     OW 6005   1.104   0.738   2.692
 1494SOL    HW2 6006   1.167   0.799   2.729
 1494SOL    HW3 6007   1.125   0.736   2.599
 1494SOL    MW4 6008   1.115   0.746   2.685
 1495SOL     OW 6009   0.871   0.894   2.716
 1495SOL    HW2 6010   0.887   0.910   2.809
 1495SOL    HW3 6011   0.931   0.824   2.692
 1495SOL    MW4 6012   0.881   0.887   2.725
 1496SOL     OW 6013   0.894   1.174   2.624
 1496SOL    HW2 6014   0.882   1.090   2.668
 1496SOL    HW3 6015   0.893   1.152   2.531
 1496SOL    MW4 6016   0.892   1.160   2.618
 1497SOL     OW 6017   1.126   1.291   2.730
 1497SOL    HW2 6018   1.107   1.374   2.688
 1497SOL    HW3 6019   1.073   1.227   2.682
 1497SOL    MW4 6020   1.116   1.293   2.718
 1498SOL     OW 6021   1.134   1.545   2.610
 1498SOL    HW2 6022   1.068   1.609   2.637
 1498SOL    HW3 6023   1.131   1.546   2.514
 1498SOL    MW4 6024   1.125   1.554   2.601
 1499SOL     OW 6025   0.911   1.669   2.717
 1499SOL    HW2 6026   0.900   1.663   2.812
 1499SOL    HW3 6027   0.836   1.621   2.682
 1499SOL    MW4 6028   0.899   1.662   2.725
 1500SOL     OW 6029   0.883   1.925   2.627
 1500SOL    HW2 6030   0.963   1.960   2.666
 1500SOL    HW3 6031   0.884   1.832   2.649
 1500SOL    MW4 6032   0.894   1.917   2.635
 1501SOL     OW 6033   1.120   2.035   2.727
 1501SOL    HW2 6034   1.197   1.999   2.683
 1501SOL    HW3 6035   1.111   2.123   2.692
 1501SOL    MW4 6036   1.129   2.042   2.717
 1502SOL     OW 6037   1.110   2.292   2.638
 1502SOL    HW2 6038   1.181   2.347   2.672
 1502SOL    HW3 6039   1.106   2.313   2.545
 1502SOL    MW4 6040   1.119   2.302   2.631
 1503SOL     OW 6041   0.896   2.417   2.751
 1503SOL    HW2 6042   0.904   2.508   2.722
 1503SOL    HW3 6043   0.956   2.368   2.695
 1503SOL    MW4 6044   0.905   2.423   2.740
 1504SOL     OW 6045   0.888   2.680   2.641
 1504SOL    HW2 6046   0.960   2.737   2.667
 1504SOL    HW3 6047   0.811   2.714   2.688
 1504SOL    MW4 6048   0.887   2.692   2.650
 1505SOL     OW 6049   1.083   2.832   2.730
 1505SOL    HW2 6050   1.106   2.825   2.823
 1505SOL    HW3 6051   1.159   2.795   2.684
 1505SOL    MW4 6052   1.096   2.826   2.736
 1506SOL     OW 6053   1.148   3.096   2.658
 1506SOL    HW2 6054   1.122   3.007   2.681
 1506SOL    HW3 6055   1.136   3.101   2.563
 1506SOL    MW4 6056   1.143   3.085   2.649
 1507SOL     OW 6057   0.919   3.208   2.777
 1507SOL    HW2 6058   0.903   3.286   2.724
 1507SOL    HW3 6059   1.006   3.179   2.749
 1507SOL    MW4 6060   0.928   3.215   2.766
 1508SOL     OW 6061   0.887   3.462   2.635
 1508SOL    HW2 6062   0.961   3.508   2.677
 1508SOL    HW3 6063   0.810   3.512   2.663
 1508SOL    MW4 6064   0.887   3.475   2.644
 1509SOL     OW 6065   1.102   3.599   2.733
 1509SOL    HW2 6066   1.101   3.626   2.825
 1509SOL    HW3 6067   1.100   3.681   2.684
 1509SOL    MW4 6068   1.102   3.613   2.739
 1510SOL     OW 6069   1.098   3.851   2.621
 1510SOL    HW2 6070   1.178   3.889   2.659
 1510SOL    HW3 6071   1.110   3.859   2.527
 1510SOL    MW4 6072   1.110   3.857   2.614
 1511SOL     OW 6073   0.893   4.008   2.707
 1511SOL    HW2 6074   0.958   3.963   2.653
 1511SOL    HW3 6075   0.809   3.970   2.680
 1511SOL    MW4 6076   0.890   3.997   2.696
 1512SOL     OW 6077   0.888   4.266   2.635
 1512SOL    HW2 6078   0.892   4.174   2.660
 1512SOL    HW3 6079   0.884   4.265   2.539
 1512SOL    MW4 6080   0.888   4.254   2.625
 1513SOL     OW 6081   1.144   4.351   2.727
 1513SOL    HW2 6082   1.137   4.378   2.819
 1513SOL    HW3 6083   1.055   4.327   2.702
 1513SOL    MW4 6084   1.131   4.351   2.736
 1514SOL     OW 6085   1.575   0.008   2.642
 1514SOL    HW2 6086   1.571  -0.086   2.659
 1514SOL    HW3 6087   1.569   0.015   2.547
 1514SOL    MW4 6088   1.574  -0.003   2.632
 1515SOL     OW 6089   1.342   0.070   2.746
 1515SOL    HW2 6090   1.329   0.163   2.726
 1515SOL    HW3 6091   1.429   0.049   2.711
 1515SOL    MW4 6092   1.352   0.080   2.739
 1516SOL     OW 6093   1.321   0.363   2.681
 1516SOL    HW2 6094   1.388   0.417   2.723
 1516SOL    HW3 6095   1.239   0.408   2.699
 1516SOL    MW4 6096   1.319   0.376   2.689
 1517SOL     OW 6097   1.562   0.519   2.780
 1517SOL    HW2 6098   1.633   0.476   2.731
 1517SOL    HW3 6099   1.562   0.609   2.748
 1517SOL    MW4 6100   1.571   0.525   2.769
 1518SOL     OW 6101   1.558   0.775   2.678
 1518SOL    HW2 6102   1.483   0.828   2.704
 1518SOL    HW3 6103   1.567   0.790   2.584
 1518SOL    MW4 6104   1.549   0.784   2.669
 1519SOL     OW 6105   1.331   0.900   2.763
 1519SOL    HW2 6106   1.364   0.894   2.852
 1519SOL    HW3 6107   1.334   0.994   2.743
 1519SOL    MW4 6108   1.336   0.912   2.772
 1520SOL     OW 6109   1.338   1.135   2.617
 1520SOL    HW2 6110   1.416   1.185   2.643
 1520SOL    HW3 6111   1.265   1.190   2.646
 1520SOL    MW4 6112   1.339   1.149   2.624
 1521SOL     OW 6113   1.562   1.287   2.697
 1521SOL    HW2 6114   1.548   1.289   2.791
 1521SOL    HW3 6115   1.647   1.245   2.686
 1521SOL    MW4 6116   1.571   1.282   2.708
 1522SOL     OW 6117   1.592   1.555   2.627
 1522SOL    HW2 6118   1.577   1.469   2.665
 1522SOL    HW3 6119   1.578   1.544   2.533
 1522SOL    MW4 6120   1.588   1.543   2.620
 1523SOL     OW 6121   1.359   1.695   2.698
 1523SOL    HW2 6122   1.443   1.652   2.685
 1523SOL    HW3 6123   1.295   1.634   2.659
 1523SOL    MW4 6124   1.361   1.681   2.691
 1524SOL     OW 6125   1.366   1.947   2.605
 1524SOL    HW2 6126   1.371   1.859   2.643
 1524SOL    HW3 6127   1.356   1.932   2.511
 1524SOL    MW4 6128   1.366   1.933   2.598
 1525SOL     OW 6129   1.563   2.116   2.698
 1525SOL    HW2 6130   1.635   2.061   2.668
 1525SOL    HW3 6131   1.484   2.073   2.664
 1525SOL    MW4 6132   1.562   2.103   2.689
 1526SOL     OW 6133   1.521   2.369   2.605
 1526SOL    HW2 6134   1.590   2.426   2.638
 1526SOL    HW3 6135   1.543   2.283   2.640
 1526SOL    MW4 6136   1.533   2.365   2.614
 1527SOL     OW 6137   1.333   2.466   2.786
 1527SOL    HW2 6138   1.322   2.551   2.744
 1527SOL    HW3 6139   1.406   2.425   2.739
 1527SOL    MW4 6140   1.341   2.472   2.775
 1528SOL     OW 6141   1.310   2.700   2.630
 1528SOL    HW2 6142   1.379   2.761   2.656
 1528SOL    HW3 6143   1.314   2.698   2.535
 1528SOL    MW4 6144   1.319   2.708   2.621
 1529SOL     OW 6145   1.540   2.860   2.698
 1529SOL    HW2 6146   1.544   2.860   2.793
 1529SOL    HW3 6147   1.611   2.802   2.671
 1529SOL    MW4 6148   1.550   2.853   2.707
 1530SOL     OW 6149   1.616   3.096   2.577
 1530SOL    HW2 6150   1.678   3.138   2.637
 1530SOL    HW3 6151   1.596   3.012   2.618
 1530SOL    MW4 6152   1.622   3.091   2.590
 1531SOL     OW 6153   1.406   3.221   2.734
 1531SOL    HW2 6154   1.476   3.189   2.678
 1531SOL    HW3 6155   1.329   3.172   2.706
 1531SOL    MW4 6156   1.405   3.211   2.723
 1532SOL     OW 6157   1.346   3.484   2.644
 1532SOL    HW2 6158   1.354   3.395   2.677
 1532SOL    HW3 6159   1.263   3.516   2.679
 1532SOL    MW4 6160   1.336   3.477   2.653
 1533SOL     OW 6161   1.579   3.622   2.733
 1533SOL    HW2 6162   1.653   3.577   2.691
 1533SOL    HW3 6163   1.502   3.574   2.705
 1533SOL    MW4 6164   1.579   3.610   2.724
 1534SOL     OW 6165   1.582   3.885   2.653
 1534SOL    HW2 6166   1.501   3.928   2.680
 1534SOL    HW3 6167   1.577   3.797   2.690
 1534SOL    MW4 6168   1.571   3.879   2.661
 1535SOL     OW 6169   1.327   3.964   2.714
 1535SOL    HW2 6170   1.309   3.957   2.808
 1535SOL    HW3 6171   1.343   4.058   2.700
 1535SOL    MW4 6172   1.327   3.976   2.725
 1536SOL     OW 6173   1.370   4.240   2.649
 1536SOL    HW2 6174   1.309   4.285   2.708
 1536SOL    HW3 6175   1.327   4.241   2.564
 1536SOL    MW4 6176   1.356   4.246   2.646
 1537SOL     OW 6177   1.592   4.408   2.680
 1537SOL    HW2 6178   1.593   4.371   2.769
 1537SOL    HW3 6179   1.511   4.374   2.641
 1537SOL    MW4 6180   1.581   4.398   2.687
 1538SOL     OW 6181   2.014   0.004   2.654
 1538SOL    HW2 6182   2.105   0.011   2.683
 1538SOL    HW3 6183   2.018   0.016   2.559
 1538SOL    MW4 6184   2.026   0.007   2.645
 1539SOL     OW 6185   1.781   0.106   2.768
 1539SOL    HW2 6186   1.862   0.065   2.739
 1539SOL    HW3 6187   1.712   0.061   2.719
 1539SOL    MW4 6188   1.783   0.095   2.758
 1540SOL     OW 6189   1.754   0.367   2.663
 1540SOL    HW2 6190   1.834   0.404   2.702
 1540SOL    HW3 6191   1.745   0.281   2.705
 1540SOL    MW4 6192   1.763   0.361   2.674
 1541SOL     OW 6193   2.004   0.471   2.760
 1541SOL    HW2 6194   2.080   0.426   2.722
 1541SOL    HW3 6195   2.008   0.559   2.722
 1541SOL    MW4 6196   2.015   0.477   2.750
 1542SOL     OW 6197   2.036   0.749   2.653
 1542SOL    HW2 6198   1.972   0.808   2.693
 1542SOL    HW3 6199   2.038   0.774   2.561
 1542SOL    MW4 6200   2.028   0.760   2.646
 1543SOL     OW 6201   1.836   0.887   2.782
 1543SOL    HW2 6202   1.823   0.974   2.745
 1543SOL    HW3 6203   1.758   0.838   2.755
 1543SOL    MW4 6204   1.824   0.892   2.774
 1544SOL     OW 6205   1.808   1.137   2.662
 1544SOL    HW2 6206   1.888   1.189   2.670
 1544SOL    HW3 6207   1.801   1.118   2.569
 1544SOL    MW4 6208   1.818   1.142   2.651
 1545SOL     OW 6209   2.008   1.306   2.720
 1545SOL    HW2 6210   1.999   1.309   2.815
 1545SOL    HW3 6211   2.089   1.258   2.705
 1545SOL    MW4 6212   2.018   1.300   2.730
 1546SOL     OW 6213   2.043   1.554   2.600
 1546SOL    HW2 6214   1.963   1.599   2.629
 1546SOL    HW3 6215   2.042   1.471   2.647
 1546SOL    MW4 6216   2.032   1.549   2.610
 1547SOL     OW 6217   1.820   1.695   2.723
 1547SOL    HW2 6218   1.817   1.701   2.819
 1547SOL    HW3 6219   1.750   1.634   2.701
 1547SOL    MW4 6220   1.811   1.687   2.733
 1548SOL     OW 6221   1.775   1.960   2.607
 1548SOL    HW2 6222   1.852   2.001   2.648
 1548SOL    HW3 6223   1.779   1.869   2.636
 1548SOL    MW4 6224   1.786   1.953   2.616
 1549SOL     OW 6225   2.015   2.066   2.707
 1549SOL    HW2 6226   2.042   2.062   2.799
 1549SOL    HW3 6227   1.997   2.159   2.691
 1549SOL    MW4 6228   2.016   2.078   2.717
 1550SOL     OW 6229   1.985   2.321   2.593
 1550SOL    HW2 6230   2.068   2.352   2.627
 1550SOL    HW3 6231   1.998   2.316   2.498
 1550SOL    MW4 6232   1.997   2.324   2.585
 1551SOL     OW 6233   1.781   2.479   2.703
 1551SOL    HW2 6234   1.792   2.453   2.794
 1551SOL    HW3 6235   1.856   2.439   2.658
 1551SOL    MW4 6236   1.793   2.470   2.709
 1552SOL     OW 6237   1.773   2.739   2.620
 1552SOL    HW2 6238   1.780   2.650   2.655
 1552SOL    HW3 6239   1.766   2.727   2.525
 1552SOL    MW4 6240   1.773   2.726   2.612
 1553SOL     OW 6241   2.022   2.853   2.737
 1553SOL    HW2 6242   2.091   2.792   2.714
 1553SOL    HW3 6243   1.941   2.806   2.718
 1553SOL    MW4 6244   2.020   2.839   2.732
 1554SOL     OW 6245   2.020   3.099   2.636
 1554SOL    HW2 6246   2.031   3.010   2.671
 1554SOL    HW3 6247   2.004   3.086   2.542
 1554SOL    MW4 6248   2.019   3.085   2.628
 1555SOL     OW 6249   1.792   3.215   2.734
 1555SOL    HW2 6250   1.782   3.304   2.702
 1555SOL    HW3 6251   1.881   3.190   2.710
 1555SOL    MW4 6252   1.802   3.224   2.727
 1556SOL     OW 6253   1.792   3.477   2.629
 1556SOL    HW2 6254   1.872   3.521   2.654
 1556SOL    HW3 6255   1.786   3.491   2.534
 1556SOL    MW4 6256   1.802   3.484   2.619
 1557SOL     OW 6257   2.029   3.595   2.710
 1557SOL    HW2 6258   2.036   3.571   2.803
 1557SOL    HW3 6259   2.111   3.565   2.671
 1557SOL    MW4 6260   2.040   3.588   2.717
 1558SOL     OW 6261   2.064   3.867   2.649
 1558SOL    HW2 6262   1.994   3.921   2.686
 1558SOL    HW3 6263   2.042   3.777   2.675
 1558SOL    MW4 6264   2.052   3.862   2.657
 1559SOL     OW 6265   1.831   4.010   2.738
 1559SOL    HW2 6266   1.820   4.095   2.695
 1559SOL    HW3 6267   1.755   3.959   2.710
 1559SOL    MW4 6268   1.820   4.015   2.728
 1560SOL     OW 6269   1.833   4.251   2.602
 1560SOL    HW2 6270   1.752   4.297   2.625
 1560SOL    HW3 6271   1.825   4.234   2.509
 1560SOL    MW4 6272   1.821   4.255   2.593
 1561SOL     OW 6273   2.056   4.396   2.705
 1561SOL    HW2 6274   1.978   4.353   2.669
 1561SOL    HW3 6275   2.045   4.488   2.681
 1561SOL    MW4 6276   2.044   4.402   2.697
 1562SOL     OW 6277   2.483   4.615   2.650
 1562SOL    HW2 6278   2.547   4.677   2.685
 1562SOL    HW3 6279   2.490   4.624   2.555
 1562SOL    MW4 6280   2.492   4.624   2.642
 1563SOL     OW 6281   2.265   0.088   2.728
 1563SOL    HW2 6282   2.268   0.097   2.823
 1563SOL    HW3 6283   2.347   0.044   2.705
 1563SOL    MW4 6284   2.276   0.083   2.738
 1564SOL     OW 6285   2.236   0.354   2.651
 1564SOL    HW2 6286   2.235   0.262   2.677
 1564SOL    HW3 6287   2.216   0.352   2.557
 1564SOL    MW4 6288   2.234   0.342   2.642
 1565SOL     OW 6289   2.467   0.486   2.718
 1565SOL    HW2 6290   2.464   0.578   2.693
 1565SOL    HW3 6291   2.395   0.445   2.671
 1565SOL    MW4 6292   2.457   0.493   2.709
 1566SOL     OW 6293   2.440   0.742   2.629
 1566SOL    HW2 6294   2.364   0.794   2.656
 1566SOL    HW3 6295   2.439   0.747   2.534
 1566SOL    MW4 6296   2.429   0.750   2.620
 1567SOL     OW 6297   2.241   0.904   2.723
 1567SOL    HW2 6298   2.250   0.888   2.817
 1567SOL    HW3 6299   2.174   0.843   2.694
 1567SOL    MW4 6300   2.233   0.894   2.732
 1568SOL     OW 6301   2.232   1.180   2.658
 1568SOL    HW2 6302   2.249   1.094   2.695
 1568SOL    HW3 6303   2.233   1.166   2.563
 1568SOL    MW4 6304   2.234   1.167   2.650
 1569SOL     OW 6305   2.470   1.306   2.732
 1569SOL    HW2 6306   2.542   1.250   2.705
 1569SOL    HW3 6307   2.391   1.256   2.709
 1569SOL    MW4 6308   2.469   1.292   2.725
 1570SOL     OW 6309   2.482   1.578   2.617
 1570SOL    HW2 6310   2.406   1.624   2.655
 1570SOL    HW3 6311   2.482   1.493   2.660
 1570SOL    MW4 6312   2.472   1.573   2.628
 1571SOL     OW 6313   2.250   1.706   2.695
 1571SOL    HW2 6314   2.240   1.797   2.667
 1571SOL    HW3 6315   2.168   1.663   2.669
 1571SOL    MW4 6316   2.238   1.712   2.688
 1572SOL     OW 6317   2.248   1.979   2.607
 1572SOL    HW2 6318   2.165   2.019   2.632
 1572SOL    HW3 6319   2.244   1.973   2.511
 1572SOL    MW4 6320   2.237   1.984   2.597
 1573SOL     OW 6321   2.464   2.052   2.757
 1573SOL    HW2 6322   2.476   2.142   2.729
 1573SOL    HW3 6323   2.394   2.018   2.702
 1573SOL    MW4 6324   2.456   2.059   2.746
 1574SOL     OW 6325   2.479   2.321   2.643
 1574SOL    HW2 6326   2.560   2.364   2.672
 1574SOL    HW3 6327   2.486   2.319   2.548
 1574SOL    MW4 6328   2.491   2.326   2.635
 1575SOL     OW 6329   2.223   2.432   2.702
 1575SOL    HW2 6330   2.219   2.437   2.798
 1575SOL    HW3 6331   2.311   2.399   2.684
 1575SOL    MW4 6332   2.234   2.428   2.713
 1576SOL     OW 6333   2.224   2.680   2.634
 1576SOL    HW2 6334   2.312   2.709   2.659
 1576SOL    HW3 6335   2.221   2.588   2.659
 1576SOL    MW4 6336   2.235   2.672   2.641
 1577SOL     OW 6337   2.458   2.815   2.696
 1577SOL    HW2 6338   2.546   2.785   2.674
 1577SOL    HW3 6339   2.453   2.903   2.660
 1577SOL    MW4 6340   2.469   2.822   2.688
 1578SOL     OW 6341   2.462   3.075   2.625
 1578SOL    HW2 6342   2.395   3.133   2.661
 1578SOL    HW3 6343   2.452   3.083   2.530
 1578SOL    MW4 6344   2.452   3.084   2.617
 1579SOL     OW 6345   2.244   3.237   2.701
 1579SOL    HW2 6346   2.243   3.223   2.796
 1579SOL    HW3 6347   2.160   3.201   2.671
 1579SOL    MW4 6348   2.233   3.230   2.710
 1580SOL     OW 6349   2.265   3.507   2.617
 1580SOL    HW2 6350   2.349   3.541   2.648
 1580SOL    HW3 6351   2.260   3.419   2.653
 1580SOL    MW4 6352   2.275   3.500   2.626
 1581SOL     OW 6353   2.489   3.629   2.695
 1581SOL    HW2 6354   2.513   3.629   2.788
 1581SOL    HW3 6355   2.500   3.720   2.667
 1581SOL    MW4 6356   2.494   3.641   2.704
 1582SOL     OW 6357   2.501   3.883   2.616
 1582SOL    HW2 6358   2.580   3.913   2.662
 1582SOL    HW3 6359   2.430   3.931   2.658
 1582SOL    MW4 6360   2.502   3.894   2.628
 1583SOL     OW 6361   2.280   4.006   2.751
 1583SOL    HW2 6362   2.288   4.006   2.847
 1583SOL    HW3 6363   2.195   3.964   2.735
 1583SOL    MW4 6364   2.270   4.000   2.762
 1584SOL     OW 6365   2.278   4.253   2.633
 1584SOL    HW2 6366   2.274   4.173   2.685
 1584SOL    HW3 6367   2.199   4.302   2.658
 1584SOL    MW4 6368   2.267   4.249   2.644
 1585SOL     OW 6369   2.478   4.370   2.759
 1585SOL    HW2 6370   2.401   4.323   2.727
 1585SOL    HW3 6371   2.473   4.456   2.716
 1585SOL    MW4 6372   2.467   4.375   2.749
 1586SOL     OW 6373   2.893   0.000   2.653
 1586SOL    HW2 6374   2.979   0.037   2.677
 1586SOL    HW3 6375   2.889   0.009   2.558
 1586SOL    MW4 6376   2.904   0.006   2.644
 1587SOL     OW 6377   2.665   0.112   2.779
 1587SOL    HW2 6378   2.670   0.097   2.873
 1587SOL    HW3 6379   2.747   0.077   2.745
 1587SOL    MW4 6380   2.676   0.105   2.787
 1588SOL     OW 6381   2.681   0.342   2.622
 1588SOL    HW2 6382   2.676   0.276   2.691
 1588SOL    HW3 6383   2.613   0.405   2.644
 1588SOL    MW4 6384   2.672   0.341   2.634
 1589SOL     OW 6385   2.906   0.450   2.726
 1589SOL    HW2 6386   2.915   0.539   2.690
 1589SOL    HW3 6387   2.822   0.419   2.692
 1589SOL    MW4 6388   2.896   0.458   2.716
 1590SOL     OW 6389   2.916   0.697   2.597
 1590SOL    HW2 6390   2.995   0.741   2.629
 1590SOL    HW3 6391   2.843   0.749   2.632
 1590SOL    MW4 6392   2.916   0.710   2.606
 1591SOL     OW 6393   2.692   0.877   2.694
 1591SOL    HW2 6394   2.687   0.885   2.789
 1591SOL    HW3 6395   2.606   0.844   2.668
 1591SOL    MW4 6396   2.680   0.874   2.703
 1592SOL     OW 6397   2.694   1.139   2.632
 1592SOL    HW2 6398   2.781   1.168   2.658
 1592SOL    HW3 6399   2.698   1.044   2.635
 1592SOL    MW4 6400   2.706   1.130   2.636
 1593SOL     OW 6401   2.924   1.268   2.674
 1593SOL    HW2 6402   2.925   1.260   2.770
 1593SOL    HW3 6403   3.005   1.227   2.646
 1593SOL    MW4 6404   2.935   1.261   2.683
 1594SOL     OW 6405   2.934   1.537   2.597
 1594SOL    HW2 6406   2.853   1.577   2.630
 1594SOL    HW3 6407   2.926   1.445   2.620
 1594SOL    MW4 6408   2.922   1.530   2.604
 1595SOL     OW 6409   2.713   1.685   2.699
 1595SOL    HW2 6410   2.703   1.680   2.794
 1595SOL    HW3 6411   2.631   1.649   2.665
 1595SOL    MW4 6412   2.701   1.680   2.707
 1596SOL     OW 6413   2.655   1.942   2.590
 1596SOL    HW2 6414   2.673   1.858   2.632
 1596SOL    HW3 6415   2.586   1.981   2.644
 1596SOL    MW4 6416   2.648   1.936   2.603
 1597SOL     OW 6417   2.892   2.057   2.756
 1597SOL    HW2 6418   2.899   2.147   2.725
 1597SOL    HW3 6419   2.812   2.024   2.714
 1597SOL    MW4 6420   2.883   2.064   2.746
 1598SOL     OW 6421   2.920   2.296   2.636
 1598SOL    HW2 6422   2.989   2.357   2.662
 1598SOL    HW3 6423   2.838   2.342   2.657
 1598SOL    MW4 6424   2.918   2.310   2.642
 1599SOL     OW 6425   2.710   2.463   2.707
 1599SOL    HW2 6426   2.711   2.470   2.803
 1599SOL    HW3 6427   2.723   2.553   2.677
 1599SOL    MW4 6428   2.712   2.476   2.716
 1600SOL     OW 6429   2.720   2.735   2.648
 1600SOL    HW2 6430   2.803   2.780   2.669
 1600SOL    HW3 6431   2.716   2.738   2.552
 1600SOL    MW4 6432   2.731   2.742   2.638
 1601SOL     OW 6433   2.957   2.846   2.709
 1601SOL    HW2 6434   2.953   2.829   2.803
 1601SOL    HW3 6435   2.939   2.939   2.700
 1601SOL    MW4 6436   2.954   2.856   2.720
 1602SOL     OW 6437   2.906   3.116   2.651
 1602SOL    HW2 6438   2.825   3.136   2.697
 1602SOL    HW3 6439   2.883   3.120   2.558
 1602SOL    MW4 6440   2.893   3.119   2.644
 1603SOL     OW 6441   2.674   3.215   2.752
 1603SOL    HW2 6442   2.691   3.288   2.692
 1603SOL    HW3 6443   2.602   3.167   2.711
 1603SOL    MW4 6444   2.667   3.218   2.738
 1604SOL     OW 6445   2.701   3.480   2.616
 1604SOL    HW2 6446   2.628   3.537   2.642
 1604SOL    HW3 6447   2.704   3.487   2.520
 1604SOL    MW4 6448   2.692   3.489   2.607
 1605SOL     OW 6449   2.921   3.617   2.722
 1605SOL    HW2 6450   2.900   3.594   2.812
 1605SOL    HW3 6451   2.846   3.588   2.670
 1605SOL    MW4 6452   2.909   3.610   2.727
 1606SOL     OW 6453   2.966   3.867   2.621
 1606SOL    HW2 6454   3.029   3.914   2.675
 1606SOL    HW3 6455   2.951   3.785   2.669
 1606SOL    MW4 6456   2.972   3.862   2.635
 1607SOL     OW 6457   2.729   4.001   2.739
 1607SOL    HW2 6458   2.732   4.089   2.703
 1607SOL    HW3 6459   2.802   3.955   2.696
 1607SOL    MW4 6460   2.739   4.006   2.728
 1608SOL     OW 6461   2.695   4.272   2.622
 1608SOL    HW2 6462   2.771   4.323   2.648
 1608SOL    HW3 6463   2.620   4.316   2.663
 1608SOL    MW4 6464   2.695   4.285   2.631
 1609SOL     OW 6465   2.918   4.395   2.724
 1609SOL    HW2 6466   2.922   4.396   2.819
 1609SOL    HW3 6467   2.912   4.487   2.698
 1609SOL    MW4 6468   2.918   4.407   2.733
 1610SOL     OW 6469   3.393   4.651   2.644
 1610SOL    HW2 6470   3.384   4.564   2.683
 1610SOL    HW3 6471   3.314   4.698   2.673
 1610SOL    MW4 6472   3.381   4.646   2.653
 1611SOL     OW 6473   3.159   0.088   2.744
 1611SOL    HW2 6474   3.163   0.086   2.840
 1611SOL    HW3 6475   3.157   0.181   2.722
 1611SOL    MW4 6476   3.160   0.100   2.754
 1612SOL     OW 6477   3.152   0.360   2.622
 1612SOL    HW2 6478   3.067   0.397   2.645
 1612SOL    HW3 6479   3.143   0.337   2.529
 1612SOL    MW4 6480   3.139   0.362   2.613
 1613SOL     OW 6481   3.394   0.442   2.722
 1613SOL    HW2 6482   3.404   0.533   2.695
 1613SOL    HW3 6483   3.311   0.413   2.682
 1613SOL    MW4 6484   3.384   0.450   2.713
 1614SOL     OW 6485   3.391   0.704   2.618
 1614SOL    HW2 6486   3.462   0.767   2.626
 1614SOL    HW3 6487   3.371   0.701   2.525
 1614SOL    MW4 6488   3.397   0.712   2.607
 1615SOL     OW 6489   3.138   0.835   2.686
 1615SOL    HW2 6490   3.130   0.841   2.782
 1615SOL    HW3 6491   3.216   0.783   2.672
 1615SOL    MW4 6492   3.147   0.829   2.697
 1616SOL     OW 6493   3.148   1.101   2.622
 1616SOL    HW2 6494   3.162   1.012   2.654
 1616SOL    HW3 6495   3.167   1.095   2.528
 1616SOL    MW4 6496   3.153   1.088   2.614
 1617SOL     OW 6497   3.346   1.261   2.717
 1617SOL    HW2 6498   3.364   1.244   2.810
 1617SOL    HW3 6499   3.275   1.201   2.695
 1617SOL    MW4 6500   3.339   1.251   2.727
 1618SOL     OW 6501   3.411   1.532   2.650
 1618SOL    HW2 6502   3.336   1.570   2.696
 1618SOL    HW3 6503   3.396   1.437   2.656
 1618SOL    MW4 6504   3.399   1.524   2.657
 1619SOL     OW 6505   3.178   1.642   2.756
 1619SOL    HW2 6506   3.166   1.730   2.722
 1619SOL    HW3 6507   3.113   1.589   2.709
 1619SOL    MW4 6508   3.168   1.647   2.745
 1620SOL     OW 6509   3.116   1.893   2.651
 1620SOL    HW2 6510   3.195   1.937   2.681
 1620SOL    HW3 6511   3.043   1.947   2.684
 1620SOL    MW4 6512   3.116   1.906   2.659
 1621SOL     OW 6513   3.332   2.017   2.759
 1621SOL    HW2 6514   3.328   2.034   2.853
 1621SOL    HW3 6515   3.359   2.100   2.720
 1621SOL    MW4 6516   3.335   2.030   2.766
 1622SOL     OW 6517   3.365   2.275   2.612
 1622SOL    HW2 6518   3.423   2.330   2.665
 1622SOL    HW3 6519   3.393   2.291   2.522
 1622SOL    MW4 6520   3.377   2.285   2.607
 1623SOL     OW 6521   3.151   2.432   2.700
 1623SOL    HW2 6522   3.158   2.520   2.662
 1623SOL    HW3 6523   3.215   2.380   2.652
 1623SOL    MW4 6524   3.160   2.437   2.689
 1624SOL     OW 6525   3.204   2.689   2.584
 1624SOL    HW2 6526   3.277   2.721   2.637
 1624SOL    HW3 6527   3.127   2.731   2.620
 1624SOL    MW4 6528   3.204   2.699   2.596
 1625SOL     OW 6529   3.415   2.821   2.734
 1625SOL    HW2 6530   3.404   2.806   2.827
 1625SOL    HW3 6531   3.500   2.782   2.713
 1625SOL    MW4 6532   3.425   2.814   2.743
 1626SOL     OW 6533   3.364   3.104   2.691
 1626SOL    HW2 6534   3.372   3.012   2.716
 1626SOL    HW3 6535   3.377   3.105   2.596
 1626SOL    MW4 6536   3.367   3.092   2.682
 1627SOL     OW 6537   3.135   3.236   2.734
 1627SOL    HW2 6538   3.214   3.186   2.720
 1627SOL    HW3 6539   3.064   3.181   2.700
 1627SOL    MW4 6540   3.136   3.222   2.728
 1628SOL     OW 6541   3.164   3.492   2.642
 1628SOL    HW2 6542   3.148   3.400   2.666
 1628SOL    HW3 6543   3.083   3.537   2.666
 1628SOL    MW4 6544   3.151   3.486   2.648
 1629SOL     OW 6545   3.378   3.615   2.772
 1629SOL    HW2 6546   3.378   3.609   2.867
 1629SOL    HW3 6547   3.293   3.578   2.746
 1629SOL    MW4 6548   3.367   3.609   2.781
 1630SOL     OW 6549   3.362   3.864   2.654
 1630SOL    HW2 6550   3.383   3.781   2.698
 1630SOL    HW3 6551   3.374   3.846   2.561
 1630SOL    MW4 6552   3.367   3.850   2.648
 1631SOL     OW 6553   3.156   4.034   2.737
 1631SOL    HW2 6554   3.164   4.114   2.686
 1631SOL    HW3 6555   3.229   3.979   2.707
 1631SOL    MW4 6556   3.167   4.037   2.726
 1632SOL     OW 6557   3.161   4.281   2.605
 1632SOL    HW2 6558   3.079   4.313   2.644
 1632SOL    HW3 6559   3.140   4.267   2.513
 1632SOL    MW4 6560   3.148   4.284   2.598
 1633SOL     OW 6561   3.395   4.391   2.703
 1633SOL    HW2 6562   3.393   4.381   2.798
 1633SOL    HW3 6563   3.318   4.343   2.673
 1633SOL    MW4 6564   3.384   4.383   2.712
 1634SOL     OW 6565   3.799   0.006   2.603
 1634SOL    HW2 6566   3.798  -0.075   2.654
 1634SOL    HW3 6567   3.741   0.066   2.650
 1634SOL    MW4 6568   3.791   0.003   2.616
 1635SOL     OW 6569   3.590   0.138   2.764
 1635SOL    HW2 6570   3.603   0.218   2.714
 1635SOL    HW3 6571   3.527   0.088   2.712
 1635SOL    MW4 6572   3.583   0.142   2.750
 1636SOL     OW 6573   3.606   0.362   2.584
 1636SOL    HW2 6574   3.678   0.408   2.627
 1636SOL    HW3 6575   3.527   0.399   2.623
 1636SOL    MW4 6576   3.605   0.373   2.595
 1637SOL     OW 6577   3.810   0.488   2.743
 1637SOL    HW2 6578   3.801   0.485   2.838
 1637SOL    HW3 6579   3.887   0.434   2.724
 1637SOL    MW4 6580   3.819   0.480   2.753
 1638SOL     OW 6581   3.819   0.717   2.589
 1638SOL    HW2 6582   3.750   0.771   2.628
 1638SOL    HW3 6583   3.818   0.636   2.639
 1638SOL    MW4 6584   3.810   0.714   2.601
 1639SOL     OW 6585   3.626   0.867   2.705
 1639SOL    HW2 6586   3.618   0.868   2.800
 1639SOL    HW3 6587   3.600   0.955   2.678
 1639SOL    MW4 6588   3.621   0.879   2.714
 1640SOL     OW 6589   3.576   1.128   2.626
 1640SOL    HW2 6590   3.647   1.189   2.646
 1640SOL    HW3 6591   3.496   1.175   2.651
 1640SOL    MW4 6592   3.575   1.143   2.632
 1641SOL     OW 6593   3.802   1.306   2.699
 1641SOL    HW2 6594   3.883   1.262   2.673
 1641SOL    HW3 6595   3.807   1.391   2.656
 1641SOL    MW4 6596   3.813   1.311   2.690
 1642SOL     OW 6597   3.818   1.544   2.597
 1642SOL    HW2 6598   3.895   1.592   2.625
 1642SOL    HW3 6599   3.746   1.583   2.647
 1642SOL    MW4 6600   3.818   1.555   2.607
 1643SOL     OW 6601   3.625   1.658   2.761
 1643SOL    HW2 6602   3.610   1.748   2.733
 1643SOL    HW3 6603   3.547   1.610   2.731
 1643SOL    MW4 6604   3.612   1.663   2.753
 1644SOL     OW 6605   3.577   1.905   2.651
 1644SOL    HW2 6606   3.491   1.944   2.671
 1644SOL    HW3 6607   3.591   1.924   2.559
 1644SOL    MW4 6608   3.567   1.913   2.642
 1645SOL     OW 6609   3.815   2.069   2.711
 1645SOL    HW2 6610   3.890   2.020   2.677
 1645SOL    HW3 6611   3.740   2.012   2.694
 1645SOL    MW4 6612   3.815   2.055   2.704
 1646SOL     OW 6613   3.814   2.347   2.624
 1646SOL    HW2 6614   3.821   2.253   2.638
 1646SOL    HW3 6615   3.829   2.359   2.530
 1646SOL    MW4 6616   3.817   2.336   2.613
 1647SOL     OW 6617   3.558   2.431   2.729
 1647SOL    HW2 6618   3.567   2.450   2.823
 1647SOL    HW3 6619   3.642   2.394   2.703
 1647SOL    MW4 6620   3.570   2.429   2.738
 1648SOL     OW 6621   3.627   2.674   2.611
 1648SOL    HW2 6622   3.603   2.585   2.638
 1648SOL    HW3 6623   3.616   2.674   2.516
 1648SOL    MW4 6624   3.623   2.662   2.602
 1649SOL     OW 6625   3.824   2.790   2.758
 1649SOL    HW2 6626   3.904   2.755   2.718
 1649SOL    HW3 6627   3.754   2.761   2.701
 1649SOL    MW4 6628   3.826   2.782   2.745
 1650SOL     OW 6629   3.843   3.070   2.621
 1650SOL    HW2 6630   3.774   3.127   2.654
 1650SOL    HW3 6631   3.827   2.986   2.663
 1650SOL    MW4 6632   3.832   3.066   2.631
 1651SOL     OW 6633   3.615   3.221   2.738
 1651SOL    HW2 6634   3.613   3.313   2.710
 1651SOL    HW3 6635   3.525   3.190   2.729
 1651SOL    MW4 6636   3.603   3.229   2.734
 1652SOL     OW 6637   3.573   3.482   2.629
 1652SOL    HW2 6638   3.641   3.536   2.671
 1652SOL    HW3 6639   3.492   3.507   2.673
 1652SOL    MW4 6640   3.572   3.493   2.640
 1653SOL     OW 6641   3.783   3.601   2.754
 1653SOL    HW2 6642   3.858   3.560   2.710
 1653SOL    HW3 6643   3.781   3.690   2.718
 1653SOL    MW4 6644   3.793   3.607   2.743
 1654SOL     OW 6645   3.818   3.850   2.633
 1654SOL    HW2 6646   3.894   3.900   2.665
 1654SOL    HW3 6647   3.743   3.904   2.656
 1654SOL    MW4 6648   3.818   3.864   2.641
 1655SOL     OW 6649   3.597   3.998   2.749
 1655SOL    HW2 6650   3.605   4.085   2.710
 1655SOL    HW3 6651   3.505   3.974   2.736
 1655SOL    MW4 6652   3.586   4.006   2.742
 1656SOL     OW 6653   3.616   4.242   2.627
 1656SOL    HW2 6654   3.545   4.302   2.647
 1656SOL    HW3 6655   3.608   4.225   2.533
 1656SOL    MW4 6656   3.606   4.247   2.617
 1657SOL     OW 6657   3.817   4.416   2.683
 1657SOL    HW2 6658   3.905   4.387   2.658
 1657SOL    HW3 6659   3.758   4.353   2.641
 1657SOL    MW4 6660   3.821   4.404   2.674
 1658SOL     OW 6661   4.230   4.660   2.583
 1658SOL    HW2 6662   4.158   4.686   2.641
 1658SOL    HW3 6663   4.307   4.703   2.619
 1658SOL    MW4 6664   4.231   4.669   2.595
 1659SOL     OW 6665   4.017   0.087   2.729
 1659SOL    HW2 6666   4.006   0.076   2.824
 1659SOL    HW3 6667   3.932   0.063   2.692
 1659SOL    MW4 6668   4.004   0.082   2.737
 1660SOL     OW 6669   4.054   0.361   2.675
 1660SOL    HW2 6670   4.061   0.274   2.713
 1660SOL    HW3 6671   4.059   0.346   2.580
 1660SOL    MW4 6672   4.056   0.348   2.667
 1661SOL     OW 6673   4.235   0.567   2.733
 1661SOL    HW2 6674   4.154   0.516   2.732
 1661SOL    HW3 6675   4.300   0.508   2.694
 1661SOL    MW4 6676   4.233   0.552   2.727
 1662SOL     OW 6677   4.246   0.806   2.599
 1662SOL    HW2 6678   4.249   0.717   2.634
 1662SOL    HW3 6679   4.231   0.794   2.505
 1662SOL    MW4 6680   4.245   0.793   2.591
 1663SOL     OW 6681   4.004   0.888   2.718
 1663SOL    HW2 6682   4.084   0.858   2.675
 1663SOL    HW3 6683   3.936   0.828   2.688
 1663SOL    MW4 6684   4.005   0.876   2.709
 1664SOL     OW 6685   4.034   1.136   2.626
 1664SOL    HW2 6686   4.123   1.161   2.650
 1664SOL    HW3 6687   4.017   1.055   2.675
 1664SOL    MW4 6688   4.043   1.129   2.636
 1665SOL     OW 6689   4.262   1.258   2.702
 1665SOL    HW2 6690   4.275   1.349   2.676
 1665SOL    HW3 6691   4.332   1.210   2.659
 1665SOL    MW4 6692   4.273   1.264   2.693
 1666SOL     OW 6693   4.287   1.518   2.604
 1666SOL    HW2 6694   4.362   1.576   2.621
 1666SOL    HW3 6695   4.269   1.529   2.511
 1666SOL    MW4 6696   4.294   1.527   2.594
 1667SOL     OW 6697   4.054   1.665   2.693
 1667SOL    HW2 6698   4.046   1.657   2.788
 1667SOL    HW3 6699   4.140   1.627   2.673
 1667SOL    MW4 6700   4.064   1.659   2.703
 1668SOL     OW 6701   4.047   1.948   2.605
 1668SOL    HW2 6702   4.115   1.997   2.652
 1668SOL    HW3 6703   4.060   1.857   2.632
 1668SOL    MW4 6704   4.058   1.942   2.615
 1669SOL     OW 6705   4.231   2.091   2.740
 1669SOL    HW2 6706   4.242   2.167   2.682
 1669SOL    HW3 6707   4.313   2.042   2.731
 1669SOL    MW4 6708   4.243   2.095   2.731
 1670SOL     OW 6709   4.244   2.319   2.595
 1670SOL    HW2 6710   4.176   2.373   2.635
 1670SOL    HW3 6711   4.227   2.324   2.501
 1670SOL    MW4 6712   4.233   2.327   2.588
 1671SOL     OW 6713   4.040   2.456   2.738
 1671SOL    HW2 6714   4.047   2.441   2.832
 1671SOL    HW3 6715   3.964   2.403   2.711
 1671SOL    MW4 6716   4.031   2.447   2.747
 1672SOL     OW 6717   4.067   2.711   2.633
 1672SOL    HW2 6718   4.125   2.759   2.693
 1672SOL    HW3 6719   4.058   2.624   2.672
 1672SOL    MW4 6720   4.073   2.706   2.646
 1673SOL     OW 6721   4.294   2.842   2.739
 1673SOL    HW2 6722   4.266   2.852   2.829
 1673SOL    HW3 6723   4.275   2.926   2.697
 1673SOL    MW4 6724   4.288   2.854   2.745
 1674SOL     OW 6725   4.263   3.098   2.630
 1674SOL    HW2 6726   4.193   3.157   2.659
 1674SOL    HW3 6727   4.283   3.126   2.541
 1674SOL    MW4 6728   4.256   3.110   2.622
 1675SOL     OW 6729   4.042   3.234   2.722
 1675SOL    HW2 6730   4.021   3.317   2.679
 1675SOL    HW3 6731   3.971   3.175   2.696
 1675SOL    MW4 6732   4.030   3.237   2.713
 1676SOL     OW 6733   4.021   3.498   2.631
 1676SOL    HW2 6734   4.093   3.548   2.670
 1676SOL    HW3 6735   4.049   3.482   2.541
 1676SOL    MW4 6736   4.034   3.502   2.624
 1677SOL     OW 6737   4.260   3.646   2.725
 1677SOL    HW2 6738   4.264   3.639   2.820
 1677SOL    HW3 6739   4.333   3.593   2.694
 1677SOL    MW4 6740   4.270   3.638   2.733
 1678SOL     OW 6741   4.245   3.888   2.591
 1678SOL    HW2 6742   4.257   3.800   2.626
 1678SOL    HW3 6743   4.310   3.941   2.636
 1678SOL    MW4 6744   4.255   3.883   2.602
 1679SOL     OW 6745   4.035   4.018   2.706
 1679SOL    HW2 6746   4.047   4.023   2.801
 1679SOL    HW3 6747   4.108   3.965   2.675
 1679SOL    MW4 6748   4.046   4.012   2.715
 1680SOL     OW 6749   4.045   4.273   2.608
 1680SOL    HW2 6750   4.029   4.182   2.633
 1680SOL    HW3 6751   4.029   4.276   2.514
 1680SOL    MW4 6752   4.041   4.261   2.599
 1681SOL     OW 6753   4.275   4.414   2.722
 1681SOL    HW2 6754   4.201   4.358   2.695
 1681SOL    HW3 6755   4.260   4.497   2.677
 1681SOL    MW4 6756   4.263   4.417   2.712
 1682SOL     OW 6757   0.208   0.021   3.094
 1682SOL    HW2 6758   0.197   0.012   3.188
 1682SOL    HW3 6759   0.130   0.069   3.065
 1682SOL    MW4 6760   0.196   0.026   3.102
 1683SOL     OW 6761   4.467   0.155   3.002
 1683SOL    HW2 6762   4.393   0.114   3.047
 1683SOL    HW3 6763   4.483   0.236   3.051
 1683SOL    MW4 6764   4.459   0.160   3.015
 1684SOL     OW 6765   0.035   0.422   3.095
 1684SOL    HW2 6766   0.027   0.423   3.190
 1684SOL    HW3 6767  -0.032   0.485   3.065
 1684SOL    MW4 6768   0.025   0.431   3.103
 1685SOL     OW 6769   0.272   0.517   2.985
 1685SOL    HW2 6770   0.342   0.471   3.032
 1685SOL    HW3 6771   0.192   0.476   3.016
 1685SOL    MW4 6772   0.271   0.505   2.995
 1686SOL     OW 6773   0.217   0.779   3.092
 1686SOL    HW2 6774   0.216   0.767   3.187
 1686SOL    HW3 6775   0.222   0.691   3.057
 1686SOL    MW4 6776   0.218   0.766   3.100
 1687SOL     OW 6777   4.483   0.934   2.987
 1687SOL    HW2 6778   4.568   0.899   3.013
 1687SOL    HW3 6779   4.477   0.917   2.893
 1687SOL    MW4 6780   4.493   0.927   2.978
 1688SOL     OW 6781   0.027   1.187   3.110
 1688SOL    HW2 6782  -0.052   1.236   3.086
 1688SOL    HW3 6783   0.019   1.104   3.064
 1688SOL    MW4 6784   0.015   1.182   3.101
 1689SOL     OW 6785   0.255   1.272   3.000
 1689SOL    HW2 6786   0.171   1.245   3.038
 1689SOL    HW3 6787   0.240   1.269   2.905
 1689SOL    MW4 6788   0.242   1.268   2.992
 1690SOL     OW 6789   0.213   1.549   3.069
 1690SOL    HW2 6790   0.123   1.572   3.044
 1690SOL    HW3 6791   0.224   1.459   3.040
 1690SOL    MW4 6792   0.203   1.540   3.062
 1691SOL     OW 6793   4.469   1.639   2.986
 1691SOL    HW2 6794   4.383   1.619   3.022
 1691SOL    HW3 6795   4.493   1.724   3.024
 1691SOL    MW4 6796   4.461   1.648   2.996
 1692SOL     OW 6797   0.031   1.889   3.088
 1692SOL    HW2 6798  -0.047   1.943   3.078
 1692SOL    HW3 6799   0.099   1.934   3.038
 1692SOL    MW4 6800   0.030   1.902   3.080
 1693SOL     OW 6801   0.203   2.059   2.957
 1693SOL    HW2 6802   0.186   2.148   2.988
 1693SOL    HW3 6803   0.206   2.066   2.862
 1693SOL    MW4 6804   0.201   2.071   2.949
 1694SOL     OW 6805   0.211   2.320   3.055
 1694SOL    HW2 6806   0.201   2.291   3.146
 1694SOL    HW3 6807   0.284   2.382   3.058
 1694SOL    MW4 6808   0.219   2.325   3.068
 1695SOL     OW 6809   4.481   2.470   2.961
 1695SOL    HW2 6810   4.506   2.560   2.980
 1695SOL    HW3 6811   4.557   2.418   2.991
 1695SOL    MW4 6812   4.495   2.475   2.967
 1696SOL     OW 6813   4.486   2.718   3.099
 1696SOL    HW2 6814   4.488   2.716   3.195
 1696SOL    HW3 6815   4.563   2.770   3.075
 1696SOL    MW4 6816   4.497   2.725   3.108
 1697SOL     OW 6817   0.225   2.880   3.020
 1697SOL    HW2 6818   0.302   2.832   3.050
 1697SOL    HW3 6819   0.225   2.869   2.925
 1697SOL    MW4 6820   0.235   2.873   3.011
 1698SOL     OW 6821   0.231   3.138   3.122
 1698SOL    HW2 6822   0.156   3.185   3.085
 1698SOL    HW3 6823   0.232   3.054   3.076
 1698SOL    MW4 6824   0.221   3.133   3.111
 1699SOL     OW 6825   0.015   3.279   3.030
 1699SOL    HW2 6826  -0.058   3.219   3.048
 1699SOL    HW3 6827   0.009   3.296   2.936
 1699SOL    MW4 6828   0.005   3.273   3.020
 1700SOL     OW 6829   4.469   3.526   3.152
 1700SOL    HW2 6830   4.393   3.556   3.102
 1700SOL    HW3 6831   4.495   3.444   3.110
 1700SOL    MW4 6832   4.462   3.519   3.140
 1701SOL     OW 6833   0.221   3.628   3.041
 1701SOL    HW2 6834   0.235   3.722   3.055
 1701SOL    HW3 6835   0.131   3.613   3.071
 1701SOL    MW4 6836   0.211   3.639   3.046
 1702SOL     OW 6837   0.225   3.890   3.088
 1702SOL    HW2 6838   0.240   3.878   3.182
 1702SOL    HW3 6839   0.293   3.951   3.061
 1702SOL    MW4 6840   0.236   3.896   3.097
 1703SOL     OW 6841   0.008   4.018   3.000
 1703SOL    HW2 6842   0.084   3.968   3.028
 1703SOL    HW3 6843   0.001   4.002   2.906
 1703SOL    MW4 6844   0.017   4.009   2.991
 1704SOL     OW 6845   4.484   4.283   3.097
 1704SOL    HW2 6846   4.486   4.280   3.192
 1704SOL    HW3 6847   4.474   4.192   3.070
 1704SOL    MW4 6848   4.483   4.271   3.106
 1705SOL     OW 6849   0.221   4.396   3.014
 1705SOL    HW2 6850   0.141   4.356   3.048
 1705SOL    HW3 6851   0.215   4.488   3.041
 1705SOL    MW4 6852   0.209   4.403   3.022
 1706SOL     OW 6853   0.686   0.002   3.092
 1706SOL    HW2 6854   0.711  -0.077   3.043
 1706SOL    HW3 6855   0.606   0.032   3.049
 1706SOL    MW4 6856   0.679  -0.005   3.080
 1707SOL     OW 6857   0.444   0.094   2.973
 1707SOL    HW2 6858   0.455   0.183   3.006
 1707SOL    HW3 6859   0.366   0.061   3.017
 1707SOL    MW4 6860   0.435   0.102   2.983
 1708SOL     OW 6861   0.466   0.365   3.088
 1708SOL    HW2 6862   0.437   0.369   3.179
 1708SOL    HW3 6863   0.537   0.428   3.082
 1708SOL    MW4 6864   0.471   0.374   3.099
 1709SOL     OW 6865   0.672   0.537   3.006
 1709SOL    HW2 6866   0.758   0.506   3.032
 1709SOL    HW3 6867   0.666   0.625   3.043
 1709SOL    MW4 6868   0.682   0.545   3.014
 1710SOL     OW 6869   0.696   0.798   3.100
 1710SOL    HW2 6870   0.686   0.764   3.190
 1710SOL    HW3 6871   0.614   0.843   3.082
 1710SOL    MW4 6872   0.684   0.799   3.110
 1711SOL     OW 6873   0.451   0.916   3.012
 1711SOL    HW2 6874   0.359   0.902   3.036
 1711SOL    HW3 6875   0.452   0.913   2.917
 1711SOL    MW4 6876   0.439   0.914   3.003
 1712SOL     OW 6877   0.473   1.165   3.115
 1712SOL    HW2 6878   0.476   1.075   3.082
 1712SOL    HW3 6879   0.395   1.203   3.075
 1712SOL    MW4 6880   0.463   1.158   3.105
 1713SOL     OW 6881   0.664   1.295   2.964
 1713SOL    HW2 6882   0.746   1.259   2.998
 1713SOL    HW3 6883   0.596   1.245   3.010
 1713SOL    MW4 6884   0.666   1.283   2.975
 1714SOL     OW 6885   0.653   1.545   3.099
 1714SOL    HW2 6886   0.657   1.518   3.190
 1714SOL    HW3 6887   0.648   1.463   3.050
 1714SOL    MW4 6888   0.653   1.531   3.104
 1715SOL     OW 6889   0.444   1.688   2.976
 1715SOL    HW2 6890   0.517   1.649   3.024
 1715SOL    HW3 6891   0.368   1.636   3.001
 1715SOL    MW4 6892   0.444   1.676   2.986
 1716SOL     OW 6893   0.424   1.943   3.072
 1716SOL    HW2 6894   0.422   1.854   3.037
 1716SOL    HW3 6895   0.352   1.988   3.028
 1716SOL    MW4 6896   0.414   1.937   3.062
 1717SOL     OW 6897   0.641   2.068   2.996
 1717SOL    HW2 6898   0.725   2.033   3.027
 1717SOL    HW3 6899   0.576   2.027   3.052
 1717SOL    MW4 6900   0.643   2.058   3.008
 1718SOL     OW 6901   0.645   2.319   3.114
 1718SOL    HW2 6902   0.639   2.309   3.209
 1718SOL    HW3 6903   0.645   2.229   3.081
 1718SOL    MW4 6904   0.645   2.305   3.122
 1719SOL     OW 6905   0.438   2.497   3.039
 1719SOL    HW2 6906   0.504   2.431   3.062
 1719SOL    HW3 6907   0.437   2.498   2.944
 1719SOL    MW4 6908   0.447   2.488   3.030
 1720SOL     OW 6909   0.450   2.764   3.149
 1720SOL    HW2 6910   0.532   2.806   3.124
 1720SOL    HW3 6911   0.457   2.675   3.114
 1720SOL    MW4 6912   0.462   2.758   3.141
 1721SOL     OW 6913   0.674   2.862   3.041
 1721SOL    HW2 6914   0.749   2.805   3.054
 1721SOL    HW3 6915   0.702   2.947   3.077
 1721SOL    MW4 6916   0.688   2.866   3.048
 1722SOL     OW 6917   0.723   3.136   3.144
 1722SOL    HW2 6918   0.718   3.127   3.240
 1722SOL    HW3 6919   0.649   3.192   3.121
 1722SOL    MW4 6920   0.713   3.142   3.154
 1723SOL     OW 6921   0.493   3.236   3.046
 1723SOL    HW2 6922   0.486   3.331   3.042
 1723SOL    HW3 6923   0.406   3.206   3.073
 1723SOL    MW4 6924   0.480   3.244   3.049
 1724SOL     OW 6925   0.450   3.489   3.096
 1724SOL    HW2 6926   0.450   3.479   3.192
 1724SOL    HW3 6927   0.374   3.544   3.078
 1724SOL    MW4 6928   0.440   3.495   3.106
 1725SOL     OW 6929   0.657   3.606   2.966
 1725SOL    HW2 6930   0.737   3.575   3.010
 1725SOL    HW3 6931   0.587   3.556   3.007
 1725SOL    MW4 6932   0.658   3.595   2.978
 1726SOL     OW 6933   0.662   3.867   3.091
 1726SOL    HW2 6934   0.693   3.855   3.181
 1726SOL    HW3 6935   0.672   3.780   3.051
 1726SOL    MW4 6936   0.668   3.854   3.098
 1727SOL     OW 6937   0.442   4.025   3.008
 1727SOL    HW2 6938   0.516   3.966   3.026
 1727SOL    HW3 6939   0.444   4.038   2.914
 1727SOL    MW4 6940   0.452   4.019   2.998
 1728SOL     OW 6941   0.454   4.283   3.109
 1728SOL    HW2 6942   0.466   4.194   3.076
 1728SOL    HW3 6943   0.369   4.310   3.075
 1728SOL    MW4 6944   0.445   4.275   3.100
 1729SOL     OW 6945   0.691   4.396   2.990
 1729SOL    HW2 6946   0.612   4.364   3.034
 1729SOL    HW3 6947   0.666   4.401   2.897
 1729SOL    MW4 6948   0.677   4.392   2.983
 1730SOL     OW 6949   1.118   4.640   3.137
 1730SOL    HW2 6950   1.205   4.679   3.142
 1730SOL    HW3 6951   1.071   4.695   3.074
 1730SOL    MW4 6952   1.123   4.653   3.129
 1731SOL     OW 6953   0.926   0.127   3.001
 1731SOL    HW2 6954   0.935   0.220   3.023
 1731SOL    HW3 6955   0.847   0.099   3.048
 1731SOL    MW4 6956   0.916   0.135   3.010
 1732SOL     OW 6957   0.912   0.391   3.079
 1732SOL    HW2 6958   0.892   0.380   3.172
 1732SOL    HW3 6959   0.999   0.431   3.078
 1732SOL    MW4 6960   0.921   0.395   3.091
 1733SOL     OW 6961   1.166   0.518   3.045
 1733SOL    HW2 6962   1.229   0.450   3.069
 1733SOL    HW3 6963   1.148   0.502   2.952
 1733SOL    MW4 6964   1.172   0.507   3.035
 1734SOL     OW 6965   1.142   0.778   3.114
 1734SOL    HW2 6966   1.125   0.783   3.208
 1734SOL    HW3 6967   1.161   0.686   3.097
 1734SOL    MW4 6968   1.142   0.766   3.124
 1735SOL     OW 6969   0.904   0.932   2.990
 1735SOL    HW2 6970   0.989   0.905   3.026
 1735SOL    HW3 6971   0.840   0.876   3.034
 1735SOL    MW4 6972   0.907   0.921   3.001
 1736SOL     OW 6973   0.896   1.181   3.091
 1736SOL    HW2 6974   0.981   1.221   3.072
 1736SOL    HW3 6975   0.900   1.096   3.048
 1736SOL    MW4 6976   0.908   1.175   3.082
 1737SOL     OW 6977   1.126   1.329   3.020
 1737SOL    HW2 6978   1.205   1.289   3.056
 1737SOL    HW3 6979   1.122   1.296   2.930
 1737SOL    MW4 6980   1.136   1.319   3.013
 1738SOL     OW 6981   1.141   1.581   3.107
 1738SOL    HW2 6982   1.208   1.624   3.054
 1738SOL    HW3 6983   1.125   1.498   3.063
 1738SOL    MW4 6984   1.148   1.576   3.094
 1739SOL     OW 6985   0.895   1.698   3.018
 1739SOL    HW2 6986   0.966   1.669   3.075
 1739SOL    HW3 6987   0.818   1.651   3.049
 1739SOL    MW4 6988   0.894   1.688   3.029
 1740SOL     OW 6989   0.882   1.962   3.090
 1740SOL    HW2 6990   0.863   1.953   3.183
 1740SOL    HW3 6991   0.890   1.872   3.058
 1740SOL    MW4 6992   0.881   1.949   3.098
 1741SOL     OW 6993   1.139   2.030   3.000
 1741SOL    HW2 6994   1.060   1.986   3.033
 1741SOL    HW3 6995   1.137   2.015   2.906
 1741SOL    MW4 6996   1.128   2.022   2.992
 1742SOL     OW 6997   1.104   2.280   3.115
 1742SOL    HW2 6998   1.024   2.329   3.093
 1742SOL    HW3 6999   1.095   2.198   3.066
 1742SOL    MW4 7000   1.092   2.275   3.105
 1743SOL     OW 7001   0.891   2.438   3.027
 1743SOL    HW2 7002   0.806   2.397   3.045
 1743SOL    HW3 7003   0.905   2.422   2.934
 1743SOL    MW4 7004   0.881   2.431   3.017
 1744SOL     OW 7005   0.907   2.695   3.108
 1744SOL    HW2 7006   0.888   2.699   3.202
 1744SOL    HW3 7007   0.905   2.602   3.086
 1744SOL    MW4 7008   0.905   2.684   3.117
 1745SOL     OW 7009   1.143   2.826   3.009
 1745SOL    HW2 7010   1.139   2.915   3.044
 1745SOL    HW3 7011   1.066   2.782   3.045
 1745SOL    MW4 7012   1.132   2.832   3.018
 1746SOL     OW 7013   1.153   3.107   3.104
 1746SOL    HW2 7014   1.228   3.158   3.072
 1746SOL    HW3 7015   1.076   3.159   3.080
 1746SOL    MW4 7016   1.153   3.121   3.097
 1747SOL     OW 7017   0.933   3.276   3.035
 1747SOL    HW2 7018   0.873   3.219   3.084
 1747SOL    HW3 7019   0.921   3.250   2.944
 1747SOL    MW4 7020   0.923   3.265   3.029
 1748SOL     OW 7021   0.894   3.539   3.113
 1748SOL    HW2 7022   0.976   3.581   3.088
 1748SOL    HW3 7023   0.908   3.446   3.095
 1748SOL    MW4 7024   0.906   3.532   3.107
 1749SOL     OW 7025   1.123   3.642   3.003
 1749SOL    HW2 7026   1.196   3.592   3.039
 1749SOL    HW3 7027   1.124   3.725   3.050
 1749SOL    MW4 7028   1.133   3.646   3.014
 1750SOL     OW 7029   1.116   3.871   3.145
 1750SOL    HW2 7030   1.119   3.893   3.238
 1750SOL    HW3 7031   1.046   3.925   3.109
 1750SOL    MW4 7032   1.107   3.881   3.152
 1751SOL     OW 7033   0.909   3.960   2.983
 1751SOL    HW2 7034   0.815   3.944   2.994
 1751SOL    HW3 7035   0.922   3.963   2.889
 1751SOL    MW4 7036   0.898   3.959   2.972
 1752SOL     OW 7037   0.912   4.232   3.056
 1752SOL    HW2 7038   0.917   4.148   3.010
 1752SOL    HW3 7039   0.835   4.276   3.018
 1752SOL    MW4 7040   0.902   4.227   3.045
 1753SOL     OW 7041   1.118   4.401   2.980
 1753SOL    HW2 7042   1.064   4.337   3.025
 1753SOL    HW3 7043   1.132   4.470   3.045
 1753SOL    MW4 7044   1.112   4.402   2.994
 1754SOL     OW 7045   1.582   4.553   3.140
 1754SOL    HW2 7046   1.582   4.565   3.235
 1754SOL    HW3 7047   1.507   4.604   3.110
 1754SOL    MW4 7048   1.572   4.562   3.149
 1755SOL     OW 7049   1.392   0.052   3.039
 1755SOL    HW2 7050   1.382   0.142   3.072
 1755SOL    HW3 7051   1.377   0.060   2.945
 1755SOL    MW4 7052   1.389   0.065   3.031
 1756SOL     OW 7053   1.348   0.325   3.104
 1756SOL    HW2 7054   1.348   0.322   3.200
 1756SOL    HW3 7055   1.421   0.382   3.082
 1756SOL    MW4 7056   1.358   0.332   3.114
 1757SOL     OW 7057   1.594   0.462   3.060
 1757SOL    HW2 7058   1.552   0.540   3.095
 1757SOL    HW3 7059   1.604   0.479   2.966
 1757SOL    MW4 7060   1.590   0.474   3.052
 1758SOL     OW 7061   1.528   0.721   3.136
 1758SOL    HW2 7062   1.538   0.729   3.231
 1758SOL    HW3 7063   1.491   0.805   3.108
 1758SOL    MW4 7064   1.525   0.733   3.144
 1759SOL     OW 7065   1.361   0.922   3.036
 1759SOL    HW2 7066   1.331   1.012   3.044
 1759SOL    HW3 7067   1.288   0.869   3.068
 1759SOL    MW4 7068   1.347   0.927   3.041
 1760SOL     OW 7069   1.354   1.181   3.117
 1760SOL    HW2 7070   1.372   1.179   3.211
 1760SOL    HW3 7071   1.432   1.220   3.079
 1760SOL    MW4 7072   1.367   1.186   3.124
 1761SOL     OW 7073   1.586   1.305   2.994
 1761SOL    HW2 7074   1.652   1.257   3.044
 1761SOL    HW3 7075   1.595   1.396   3.022
 1761SOL    MW4 7076   1.596   1.310   3.004
 1762SOL     OW 7077   1.576   1.559   3.093
 1762SOL    HW2 7078   1.655   1.598   3.056
 1762SOL    HW3 7079   1.504   1.597   3.041
 1762SOL    MW4 7080   1.577   1.569   3.081
 1763SOL     OW 7081   1.342   1.703   2.962
 1763SOL    HW2 7082   1.362   1.786   3.004
 1763SOL    HW3 7083   1.344   1.722   2.868
 1763SOL    MW4 7084   1.345   1.716   2.955
 1764SOL     OW 7085   1.387   1.948   3.094
 1764SOL    HW2 7086   1.372   1.957   3.188
 1764SOL    HW3 7087   1.303   1.972   3.055
 1764SOL    MW4 7088   1.374   1.953   3.101
 1765SOL     OW 7089   1.616   2.079   2.968
 1765SOL    HW2 7090   1.549   2.024   3.008
 1765SOL    HW3 7091   1.598   2.075   2.874
 1765SOL    MW4 7092   1.605   2.071   2.961
 1766SOL     OW 7093   1.571   2.330   3.087
 1766SOL    HW2 7094   1.480   2.347   3.064
 1766SOL    HW3 7095   1.591   2.246   3.045
 1766SOL    MW4 7096   1.562   2.321   3.078
 1767SOL     OW 7097   1.321   2.425   3.054
 1767SOL    HW2 7098   1.247   2.365   3.065
 1767SOL    HW3 7099   1.326   2.440   2.960
 1767SOL    MW4 7100   1.312   2.419   3.043
 1768SOL     OW 7101   1.350   2.687   3.144
 1768SOL    HW2 7102   1.332   2.595   3.125
 1768SOL    HW3 7103   1.286   2.735   3.091
 1768SOL    MW4 7104   1.339   2.681   3.134
 1769SOL     OW 7105   1.578   2.820   3.031
 1769SOL    HW2 7106   1.652   2.764   3.054
 1769SOL    HW3 7107   1.501   2.772   3.060
 1769SOL    MW4 7108   1.577   2.807   3.038
 1770SOL     OW 7109   1.607   3.089   3.119
 1770SOL    HW2 7110   1.607   3.083   3.215
 1770SOL    HW3 7111   1.599   2.998   3.089
 1770SOL    MW4 7112   1.606   3.076   3.128
 1771SOL     OW 7113   1.384   3.237   3.012
 1771SOL    HW2 7114   1.458   3.193   3.053
 1771SOL    HW3 7115   1.398   3.224   2.918
 1771SOL    MW4 7116   1.396   3.229   3.005
 1772SOL     OW 7117   1.357   3.506   3.095
 1772SOL    HW2 7118   1.348   3.507   3.190
 1772SOL    HW3 7119   1.355   3.413   3.072
 1772SOL    MW4 7120   1.355   3.493   3.105
 1773SOL     OW 7121   1.579   3.628   3.002
 1773SOL    HW2 7122   1.497   3.583   3.022
 1773SOL    HW3 7123   1.580   3.636   2.907
 1773SOL    MW4 7124   1.568   3.623   2.992
 1774SOL     OW 7125   1.560   3.894   3.075
 1774SOL    HW2 7126   1.649   3.923   3.056
 1774SOL    HW3 7127   1.561   3.800   3.055
 1774SOL    MW4 7128   1.572   3.885   3.070
 1775SOL     OW 7129   1.315   3.992   3.005
 1775SOL    HW2 7130   1.396   3.950   3.034
 1775SOL    HW3 7131   1.246   3.935   3.038
 1775SOL    MW4 7132   1.317   3.979   3.013
 1776SOL     OW 7133   1.347   4.242   3.123
 1776SOL    HW2 7134   1.357   4.150   3.096
 1776SOL    HW3 7135   1.272   4.273   3.072
 1776SOL    MW4 7136   1.338   4.234   3.112
 1777SOL     OW 7137   1.577   4.339   2.961
 1777SOL    HW2 7138   1.499   4.293   2.991
 1777SOL    HW3 7139   1.581   4.418   3.014
 1777SOL    MW4 7140   1.567   4.344   2.972
 1778SOL     OW 7141   2.051   4.615   3.138
 1778SOL    HW2 7142   2.070   4.594   3.229
 1778SOL    HW3 7143   1.971   4.668   3.142
 1778SOL    MW4 7144   2.043   4.619   3.150
 1779SOL     OW 7145   1.794   0.081   3.077
 1779SOL    HW2 7146   1.713   0.044   3.110
 1779SOL    HW3 7147   1.778   0.096   2.984
 1779SOL    MW4 7148   1.782   0.078   3.069
 1780SOL     OW 7149   1.830   0.342   3.163
 1780SOL    HW2 7150   1.823   0.251   3.132
 1780SOL    HW3 7151   1.754   0.386   3.125
 1780SOL    MW4 7152   1.819   0.336   3.154
 1781SOL     OW 7153   2.022   0.473   3.035
 1781SOL    HW2 7154   1.966   0.418   3.090
 1781SOL    HW3 7155   1.997   0.451   2.946
 1781SOL    MW4 7156   2.011   0.463   3.031
 1782SOL     OW 7157   2.010   0.730   3.137
 1782SOL    HW2 7158   1.931   0.769   3.100
 1782SOL    HW3 7159   2.004   0.637   3.114
 1782SOL    MW4 7160   1.999   0.723   3.129
 1783SOL     OW 7161   1.767   0.873   3.063
 1783SOL    HW2 7162   1.695   0.815   3.087
 1783SOL    HW3 7163   1.766   0.874   2.967
 1783SOL    MW4 7164   1.758   0.865   3.053
 1784SOL     OW 7165   1.776   1.150   3.134
 1784SOL    HW2 7166   1.776   1.148   3.229
 1784SOL    HW3 7167   1.789   1.059   3.107
 1784SOL    MW4 7168   1.777   1.138   3.143
 1785SOL     OW 7169   1.987   1.301   3.002
 1785SOL    HW2 7170   2.066   1.251   3.021
 1785SOL    HW3 7171   1.917   1.255   3.049
 1785SOL    MW4 7172   1.988   1.288   3.011
 1786SOL     OW 7173   2.035   1.553   3.108
 1786SOL    HW2 7174   1.999   1.559   3.196
 1786SOL    HW3 7175   2.007   1.467   3.076
 1786SOL    MW4 7176   2.027   1.542   3.115
 1787SOL     OW 7177   1.809   1.693   3.002
 1787SOL    HW2 7178   1.812   1.775   3.051
 1787SOL    HW3 7179   1.884   1.643   3.035
 1787SOL    MW4 7180   1.820   1.698   3.013
 1788SOL     OW 7181   1.820   1.962   3.100
 1788SOL    HW2 7182   1.903   1.997   3.069
 1788SOL    HW3 7183   1.754   2.004   3.044
 1788SOL    MW4 7184   1.822   1.972   3.089
 1789SOL     OW 7185   2.093   2.052   2.994
 1789SOL    HW2 7186   2.167   2.028   3.050
 1789SOL    HW3 7187   2.080   2.146   3.010
 1789SOL    MW4 7188   2.101   2.061   3.004
 1790SOL     OW 7189   2.028   2.319   3.065
 1790SOL    HW2 7190   2.103   2.372   3.040
 1790SOL    HW3 7191   1.953   2.362   3.025
 1790SOL    MW4 7192   2.028   2.332   3.057
 1791SOL     OW 7193   1.800   2.438   2.986
 1791SOL    HW2 7194   1.810   2.524   3.027
 1791SOL    HW3 7195   1.720   2.402   3.024
 1791SOL    MW4 7196   1.791   2.445   2.996
 1792SOL     OW 7197   1.803   2.675   3.115
 1792SOL    HW2 7198   1.790   2.692   3.208
 1792SOL    HW3 7199   1.877   2.731   3.090
 1792SOL    MW4 7200   1.811   2.684   3.124
 1793SOL     OW 7201   2.012   2.847   3.020
 1793SOL    HW2 7202   2.005   2.938   3.049
 1793SOL    HW3 7203   2.025   2.853   2.926
 1793SOL    MW4 7204   2.013   2.860   3.012
 1794SOL     OW 7205   2.046   3.139   3.091
 1794SOL    HW2 7206   2.026   3.137   3.185
 1794SOL    HW3 7207   1.976   3.191   3.052
 1794SOL    MW4 7208   2.034   3.146   3.098
 1795SOL     OW 7209   1.812   3.260   3.005
 1795SOL    HW2 7210   1.739   3.232   3.060
 1795SOL    HW3 7211   1.785   3.236   2.916
 1795SOL    MW4 7212   1.799   3.253   3.000
 1796SOL     OW 7213   1.810   3.517   3.117
 1796SOL    HW2 7214   1.810   3.441   3.058
 1796SOL    HW3 7215   1.736   3.570   3.088
 1796SOL    MW4 7216   1.801   3.514   3.105
 1797SOL     OW 7217   2.067   3.572   2.999
 1797SOL    HW2 7218   2.080   3.666   3.012
 1797SOL    HW3 7219   1.989   3.552   3.052
 1797SOL    MW4 7220   2.058   3.581   3.008
 1798SOL     OW 7221   2.073   3.844   3.072
 1798SOL    HW2 7222   2.072   3.828   3.167
 1798SOL    HW3 7223   1.996   3.897   3.056
 1798SOL    MW4 7224   2.063   3.849   3.083
 1799SOL     OW 7225   1.826   3.967   3.020
 1799SOL    HW2 7226   1.814   4.053   3.060
 1799SOL    HW3 7227   1.819   3.983   2.926
 1799SOL    MW4 7228   1.824   3.980   3.013
 1800SOL     OW 7229   1.803   4.234   3.081
 1800SOL    HW2 7230   1.864   4.278   3.021
 1800SOL    HW3 7231   1.720   4.281   3.069
 1800SOL    MW4 7232   1.800   4.246   3.072
 1801SOL     OW 7233   2.027   4.369   2.981
 1801SOL    HW2 7234   2.020   4.461   3.006
 1801SOL    HW3 7235   2.043   4.371   2.887
 1801SOL    MW4 7236   2.028   4.381   2.972
 1802SOL     OW 7237   2.495   4.646   3.172
 1802SOL    HW2 7238   2.489   4.555   3.145
 1802SOL    HW3 7239   2.417   4.688   3.135
 1802SOL    MW4 7240   2.484   4.640   3.163
 1803SOL     OW 7241   2.267   0.064   3.012
 1803SOL    HW2 7242   2.247   0.155   3.035
 1803SOL    HW3 7243   2.193   0.014   3.046
 1803SOL    MW4 7244   2.254   0.069   3.019
 1804SOL     OW 7245   2.266   0.332   3.085
 1804SOL    HW2 7246   2.273   0.324   3.180
 1804SOL    HW3 7247   2.189   0.387   3.071
 1804SOL    MW4 7248   2.257   0.338   3.096
 1805SOL     OW 7249   2.490   0.454   3.001
 1805SOL    HW2 7250   2.410   0.404   3.015
 1805SOL    HW3 7251   2.506   0.449   2.907
 1805SOL    MW4 7252   2.482   0.447   2.991
 1806SOL     OW 7253   2.447   0.704   3.096
 1806SOL    HW2 7254   2.525   0.741   3.055
 1806SOL    HW3 7255   2.444   0.613   3.064
 1806SOL    MW4 7256   2.457   0.697   3.086
 1807SOL     OW 7257   2.229   0.878   3.012
 1807SOL    HW2 7258   2.306   0.837   3.051
 1807SOL    HW3 7259   2.155   0.835   3.054
 1807SOL    MW4 7260   2.230   0.867   3.023
 1808SOL     OW 7261   2.209   1.170   3.072
 1808SOL    HW2 7262   2.225   1.156   3.165
 1808SOL    HW3 7263   2.198   1.082   3.036
 1808SOL    MW4 7264   2.210   1.156   3.080
 1809SOL     OW 7265   2.468   1.292   3.021
 1809SOL    HW2 7266   2.384   1.255   3.047
 1809SOL    HW3 7267   2.459   1.308   2.927
 1809SOL    MW4 7268   2.456   1.289   3.012
 1810SOL     OW 7269   2.492   1.551   3.120
 1810SOL    HW2 7270   2.413   1.591   3.085
 1810SOL    HW3 7271   2.486   1.459   3.092
 1810SOL    MW4 7272   2.481   1.544   3.111
 1811SOL     OW 7273   2.276   1.666   2.980
 1811SOL    HW2 7274   2.191   1.633   3.010
 1811SOL    HW3 7275   2.262   1.689   2.888
 1811SOL    MW4 7276   2.263   1.665   2.972
 1812SOL     OW 7277   2.278   1.887   3.154
 1812SOL    HW2 7278   2.356   1.938   3.131
 1812SOL    HW3 7279   2.274   1.819   3.087
 1812SOL    MW4 7280   2.288   1.885   3.142
 1813SOL     OW 7281   2.458   2.065   3.038
 1813SOL    HW2 7282   2.540   2.026   3.066
 1813SOL    HW3 7283   2.469   2.079   2.943
 1813SOL    MW4 7284   2.470   2.062   3.029
 1814SOL     OW 7285   2.495   2.338   3.106
 1814SOL    HW2 7286   2.488   2.358   3.199
 1814SOL    HW3 7287   2.480   2.243   3.101
 1814SOL    MW4 7288   2.492   2.328   3.118
 1815SOL     OW 7289   2.253   2.435   2.980
 1815SOL    HW2 7290   2.254   2.528   3.002
 1815SOL    HW3 7291   2.327   2.398   3.026
 1815SOL    MW4 7292   2.263   2.442   2.989
 1816SOL     OW 7293   2.250   2.685   3.079
 1816SOL    HW2 7294   2.323   2.723   3.029
 1816SOL    HW3 7295   2.174   2.738   3.054
 1816SOL    MW4 7296   2.250   2.697   3.069
 1817SOL     OW 7297   2.462   2.795   2.960
 1817SOL    HW2 7298   2.476   2.883   2.997
 1817SOL    HW3 7299   2.458   2.810   2.866
 1817SOL    MW4 7300   2.463   2.809   2.953
 1818SOL     OW 7301   2.495   3.050   3.077
 1818SOL    HW2 7302   2.573   3.100   3.053
 1818SOL    HW3 7303   2.422   3.098   3.036
 1818SOL    MW4 7304   2.495   3.063   3.068
 1819SOL     OW 7305   2.294   3.192   2.965
 1819SOL    HW2 7306   2.326   3.276   2.999
 1819SOL    HW3 7307   2.217   3.172   3.019
 1819SOL    MW4 7308   2.288   3.201   2.977
 1820SOL     OW 7309   2.318   3.464   3.098
 1820SOL    HW2 7310   2.379   3.524   3.055
 1820SOL    HW3 7311   2.232   3.489   3.064
 1820SOL    MW4 7312   2.314   3.476   3.088
 1821SOL     OW 7313   2.539   3.611   2.968
 1821SOL    HW2 7314   2.607   3.560   3.012
 1821SOL    HW3 7315   2.529   3.690   3.022
 1821SOL    MW4 7316   2.547   3.615   2.981
 1822SOL     OW 7317   2.509   3.819   3.126
 1822SOL    HW2 7318   2.501   3.808   3.221
 1822SOL    HW3 7319   2.585   3.877   3.115
 1822SOL    MW4 7320   2.518   3.825   3.137
 1823SOL     OW 7321   2.316   3.995   3.024
 1823SOL    HW2 7322   2.379   3.942   3.073
 1823SOL    HW3 7323   2.231   3.956   3.046
 1823SOL    MW4 7324   2.313   3.983   3.033
 1824SOL     OW 7325   2.258   4.265   3.132
 1824SOL    HW2 7326   2.281   4.176   3.105
 1824SOL    HW3 7327   2.185   4.289   3.075
 1824SOL    MW4 7328   2.251   4.257   3.121
 1825SOL     OW 7329   2.463   4.401   3.039
 1825SOL    HW2 7330   2.384   4.360   3.074
 1825SOL    HW3 7331   2.465   4.377   2.947
 1825SOL    MW4 7332   2.453   4.393   3.031
 1826SOL     OW 7333   2.923   4.621   3.134
 1826SOL    HW2 7334   3.002   4.661   3.099
 1826SOL    HW3 7335   2.919   4.534   3.092
 1826SOL    MW4 7336   2.932   4.615   3.124
 1827SOL     OW 7337   2.704   0.104   3.052
 1827SOL    HW2 7338   2.785   0.059   3.078
 1827SOL    HW3 7339   2.634   0.056   3.097
 1827SOL    MW4 7340   2.706   0.092   3.061
 1828SOL     OW 7341   2.730   0.366   3.142
 1828SOL    HW2 7342   2.709   0.280   3.105
 1828SOL    HW3 7343   2.652   0.419   3.123
 1828SOL    MW4 7344   2.717   0.361   3.134
 1829SOL     OW 7345   2.925   0.490   3.004
 1829SOL    HW2 7346   2.855   0.454   3.060
 1829SOL    HW3 7347   2.898   0.467   2.915
 1829SOL    MW4 7348   2.912   0.482   3.000
 1830SOL     OW 7349   2.888   0.747   3.099
 1830SOL    HW2 7350   2.898   0.729   3.193
 1830SOL    HW3 7351   2.903   0.663   3.057
 1830SOL    MW4 7352   2.891   0.733   3.106
 1831SOL     OW 7353   2.673   0.870   2.968
 1831SOL    HW2 7354   2.675   0.952   3.017
 1831SOL    HW3 7355   2.752   0.824   2.996
 1831SOL    MW4 7356   2.683   0.875   2.978
 1832SOL     OW 7357   2.709   1.142   3.086
 1832SOL    HW2 7358   2.774   1.187   3.032
 1832SOL    HW3 7359   2.627   1.187   3.068
 1832SOL    MW4 7360   2.707   1.154   3.077
 1833SOL     OW 7361   2.912   1.282   2.958
 1833SOL    HW2 7362   2.996   1.243   2.982
 1833SOL    HW3 7363   2.915   1.370   2.994
 1833SOL    MW4 7364   2.923   1.288   2.966
 1834SOL     OW 7365   2.931   1.537   3.060
 1834SOL    HW2 7366   2.919   1.531   3.155
 1834SOL    HW3 7367   3.021   1.566   3.048
 1834SOL    MW4 7368   2.941   1.540   3.071
 1835SOL     OW 7369   2.697   1.663   2.990
 1835SOL    HW2 7370   2.784   1.625   3.005
 1835SOL    HW3 7371   2.638   1.609   3.043
 1835SOL    MW4 7372   2.701   1.651   2.999
 1836SOL     OW 7373   2.672   1.908   3.135
 1836SOL    HW2 7374   2.747   1.959   3.107
 1836SOL    HW3 7375   2.662   1.840   3.068
 1836SOL    MW4 7376   2.680   1.906   3.122
 1837SOL     OW 7377   2.902   2.039   3.044
 1837SOL    HW2 7378   2.896   2.132   3.062
 1837SOL    HW3 7379   2.881   2.031   2.951
 1837SOL    MW4 7380   2.899   2.050   3.034
 1838SOL     OW 7381   2.924   2.299   3.081
 1838SOL    HW2 7382   2.994   2.336   3.027
 1838SOL    HW3 7383   2.845   2.345   3.052
 1838SOL    MW4 7384   2.923   2.310   3.070
 1839SOL     OW 7385   2.706   2.471   2.974
 1839SOL    HW2 7386   2.711   2.556   3.018
 1839SOL    HW3 7387   2.642   2.422   3.025
 1839SOL    MW4 7388   2.698   2.476   2.987
 1840SOL     OW 7389   2.695   2.733   3.089
 1840SOL    HW2 7390   2.675   2.732   3.182
 1840SOL    HW3 7391   2.612   2.755   3.046
 1840SOL    MW4 7392   2.681   2.736   3.095
 1841SOL     OW 7393   2.941   2.803   2.991
 1841SOL    HW2 7394   3.007   2.754   3.040
 1841SOL    HW3 7395   2.858   2.779   3.031
 1841SOL    MW4 7396   2.939   2.793   3.003
 1842SOL     OW 7397   2.954   3.043   3.133
 1842SOL    HW2 7398   2.877   3.096   3.110
 1842SOL    HW3 7399   2.941   2.961   3.084
 1842SOL    MW4 7400   2.942   3.039   3.123
 1843SOL     OW 7401   2.738   3.178   3.020
 1843SOL    HW2 7402   2.744   3.268   3.051
 1843SOL    HW3 7403   2.702   3.185   2.932
 1843SOL    MW4 7404   2.734   3.190   3.013
 1844SOL     OW 7405   2.732   3.456   3.106
 1844SOL    HW2 7406   2.710   3.468   3.198
 1844SOL    HW3 7407   2.809   3.511   3.091
 1844SOL    MW4 7408   2.739   3.465   3.116
 1845SOL     OW 7409   2.934   3.613   3.010
 1845SOL    HW2 7410   3.002   3.567   3.058
 1845SOL    HW3 7411   2.943   3.705   3.037
 1845SOL    MW4 7412   2.944   3.619   3.020
 1846SOL     OW 7413   2.966   3.886   3.095
 1846SOL    HW2 7414   2.958   3.871   3.189
 1846SOL    HW3 7415   2.887   3.936   3.072
 1846SOL    MW4 7416   2.954   3.891   3.104
 1847SOL     OW 7417   2.709   4.005   3.020
 1847SOL    HW2 7418   2.712   4.099   3.041
 1847SOL    HW3 7419   2.703   4.002   2.925
 1847SOL    MW4 7420   2.709   4.017   3.010
 1848SOL     OW 7421   2.702   4.271   3.108
 1848SOL    HW2 7422   2.681   4.239   3.196
 1848SOL    HW3 7423   2.624   4.317   3.080
 1848SOL    MW4 7424   2.689   4.273   3.116
 1849SOL     OW 7425   2.938   4.379   3.005
 1849SOL    HW2 7426   3.013   4.323   3.025
 1849SOL    HW3 7427   2.866   4.341   3.055
 1849SOL    MW4 7428   2.938   4.366   3.014
 1850SOL     OW 7429   3.348   4.631   3.139
 1850SOL    HW2 7430   3.422   4.673   3.095
 1850SOL    HW3 7431   3.348   4.541   3.107
 1850SOL    MW4 7432   3.358   4.625   3.129
 1851SOL     OW 7433   3.144   0.069   3.004
 1851SOL    HW2 7434   3.132   0.159   3.033
 1851SOL    HW3 7435   3.216   0.035   3.058
 1851SOL    MW4 7436   3.152   0.076   3.015
 1852SOL     OW 7437   3.135   0.343   3.098
 1852SOL    HW2 7438   3.220   0.380   3.076
 1852SOL    HW3 7439   3.072   0.402   3.055
 1852SOL    MW4 7440   3.138   0.356   3.089
 1853SOL     OW 7441   3.376   0.462   2.988
 1853SOL    HW2 7442   3.457   0.431   3.029
 1853SOL    HW3 7443   3.394   0.459   2.894
 1853SOL    MW4 7444   3.389   0.457   2.981
 1854SOL     OW 7445   3.363   0.735   3.077
 1854SOL    HW2 7446   3.355   0.723   3.171
 1854SOL    HW3 7447   3.382   0.647   3.043
 1854SOL    MW4 7448   3.364   0.722   3.085
 1855SOL     OW 7449   3.115   0.846   2.987
 1855SOL    HW2 7450   3.184   0.786   3.016
 1855SOL    HW3 7451   3.036   0.816   3.032
 1855SOL    MW4 7452   3.114   0.834   2.997
 1856SOL     OW 7453   3.140   1.134   3.065
 1856SOL    HW2 7454   3.229   1.162   3.041
 1856SOL    HW3 7455   3.132   1.047   3.026
 1856SOL    MW4 7456   3.151   1.126   3.056
 1857SOL     OW 7457   3.394   1.223   2.984
 1857SOL    HW2 7458   3.475   1.178   3.007
 1857SOL    HW3 7459   3.400   1.307   3.030
 1857SOL    MW4 7460   3.405   1.228   2.993
 1858SOL     OW 7461   3.432   1.480   3.113
 1858SOL    HW2 7462   3.438   1.481   3.208
 1858SOL    HW3 7463   3.500   1.540   3.083
 1858SOL    MW4 7464   3.442   1.488   3.121
 1859SOL     OW 7465   3.196   1.608   3.046
 1859SOL    HW2 7466   3.281   1.566   3.058
 1859SOL    HW3 7467   3.195   1.633   2.953
 1859SOL    MW4 7468   3.207   1.606   3.035
 1860SOL     OW 7469   3.139   1.899   3.151
 1860SOL    HW2 7470   3.134   1.805   3.132
 1860SOL    HW3 7471   3.075   1.938   3.092
 1860SOL    MW4 7472   3.130   1.892   3.141
 1861SOL     OW 7473   3.342   2.044   3.032
 1861SOL    HW2 7474   3.424   1.994   3.037
 1861SOL    HW3 7475   3.278   1.988   3.076
 1861SOL    MW4 7476   3.345   2.030   3.038
 1862SOL     OW 7477   3.390   2.296   3.102
 1862SOL    HW2 7478   3.373   2.298   3.197
 1862SOL    HW3 7479   3.378   2.204   3.078
 1862SOL    MW4 7480   3.386   2.284   3.112
 1863SOL     OW 7481   3.165   2.425   2.983
 1863SOL    HW2 7482   3.247   2.382   3.007
 1863SOL    HW3 7483   3.169   2.431   2.888
 1863SOL    MW4 7484   3.177   2.420   2.974
 1864SOL     OW 7485   3.146   2.683   3.101
 1864SOL    HW2 7486   3.154   2.687   3.196
 1864SOL    HW3 7487   3.142   2.590   3.081
 1864SOL    MW4 7488   3.147   2.671   3.111
 1865SOL     OW 7489   3.366   2.834   2.991
 1865SOL    HW2 7490   3.364   2.926   3.017
 1865SOL    HW3 7491   3.279   2.800   3.015
 1865SOL    MW4 7492   3.354   2.842   2.997
 1866SOL     OW 7493   3.373   3.086   3.111
 1866SOL    HW2 7494   3.362   3.059   3.202
 1866SOL    HW3 7495   3.295   3.139   3.092
 1866SOL    MW4 7496   3.361   3.089   3.120
 1867SOL     OW 7497   3.144   3.204   3.022
 1867SOL    HW2 7498   3.086   3.129   3.039
 1867SOL    HW3 7499   3.144   3.213   2.927
 1867SOL    MW4 7500   3.136   3.195   3.012
 1868SOL     OW 7501   3.131   3.455   3.133
 1868SOL    HW2 7502   3.212   3.493   3.098
 1868SOL    HW3 7503   3.119   3.374   3.084
 1868SOL    MW4 7504   3.140   3.449   3.122
 1869SOL     OW 7505   3.361   3.568   3.046
 1869SOL    HW2 7506   3.440   3.527   3.080
 1869SOL    HW3 7507   3.366   3.659   3.074
 1869SOL    MW4 7508   3.372   3.574   3.054
 1870SOL     OW 7509   3.415   3.834   3.113
 1870SOL    HW2 7510   3.398   3.829   3.207
 1870SOL    HW3 7511   3.349   3.894   3.080
 1870SOL    MW4 7512   3.404   3.841   3.121
 1871SOL     OW 7513   3.226   3.981   2.999
 1871SOL    HW2 7514   3.149   3.937   3.035
 1871SOL    HW3 7515   3.198   4.011   2.912
 1871SOL    MW4 7516   3.212   3.979   2.992
 1872SOL     OW 7517   3.156   4.232   3.084
 1872SOL    HW2 7518   3.147   4.228   3.180
 1872SOL    HW3 7519   3.165   4.140   3.057
 1872SOL    MW4 7520   3.156   4.219   3.093
 1873SOL     OW 7521   3.375   4.378   2.996
 1873SOL    HW2 7522   3.457   4.335   3.021
 1873SOL    HW3 7523   3.307   4.317   3.024
 1873SOL    MW4 7524   3.377   4.364   3.003
 1874SOL     OW 7525   3.790   4.654   3.102
 1874SOL    HW2 7526   3.792   4.561   3.079
 1874SOL    HW3 7527   3.703   4.683   3.075
 1874SOL    MW4 7528   3.779   4.646   3.095
 1875SOL     OW 7529   3.558   0.094   3.031
 1875SOL    HW2 7530   3.563   0.185   3.062
 1875SOL    HW3 7531   3.570   0.101   2.936
 1875SOL    MW4 7532   3.560   0.107   3.022
 1876SOL     OW 7533   3.599   0.349   3.100
 1876SOL    HW2 7534   3.601   0.354   3.196
 1876SOL    HW3 7535   3.673   0.402   3.071
 1876SOL    MW4 7536   3.609   0.356   3.109
 1877SOL     OW 7537   3.808   0.499   3.026
 1877SOL    HW2 7538   3.892   0.469   3.062
 1877SOL    HW3 7539   3.800   0.589   3.057
 1877SOL    MW4 7540   3.818   0.507   3.035
 1878SOL     OW 7541   3.795   0.758   3.108
 1878SOL    HW2 7542   3.806   0.756   3.203
 1878SOL    HW3 7543   3.874   0.801   3.075
 1878SOL    MW4 7544   3.807   0.763   3.116
 1879SOL     OW 7545   3.580   0.871   2.976
 1879SOL    HW2 7546   3.655   0.830   3.020
 1879SOL    HW3 7547   3.504   0.829   3.015
 1879SOL    MW4 7548   3.580   0.860   2.987
 1880SOL     OW 7549   3.612   1.117   3.121
 1880SOL    HW2 7550   3.680   1.156   3.066
 1880SOL    HW3 7551   3.608   1.026   3.094
 1880SOL    MW4 7552   3.620   1.110   3.110
 1881SOL     OW 7553   3.795   1.259   2.979
 1881SOL    HW2 7554   3.795   1.344   3.023
 1881SOL    HW3 7555   3.793   1.280   2.886
 1881SOL    MW4 7556   3.795   1.273   2.973
 1882SOL     OW 7557   3.828   1.511   3.109
 1882SOL    HW2 7558   3.814   1.492   3.202
 1882SOL    HW3 7559   3.745   1.551   3.081
 1882SOL    MW4 7560   3.815   1.514   3.118
 1883SOL     OW 7561   3.616   1.656   3.033
 1883SOL    HW2 7562   3.612   1.748   3.056
 1883SOL    HW3 7563   3.624   1.655   2.938
 1883SOL    MW4 7564   3.616   1.668   3.023
 1884SOL     OW 7565   3.613   1.935   3.055
 1884SOL    HW2 7566   3.619   1.935   3.151
 1884SOL    HW3 7567   3.688   1.986   3.026
 1884SOL    MW4 7568   3.624   1.941   3.064
 1885SOL     OW 7569   3.827   2.088   2.980
 1885SOL    HW2 7570   3.827   2.180   3.007
 1885SOL    HW3 7571   3.832   2.091   2.884
 1885SOL    MW4 7572   3.828   2.100   2.971
 1886SOL     OW 7573   3.820   2.355   3.142
 1886SOL    HW2 7574   3.792   2.343   3.232
 1886SOL    HW3 7575   3.743   2.391   3.098
 1886SOL    MW4 7576   3.806   2.358   3.148
 1887SOL     OW 7577   3.606   2.440   3.003
 1887SOL    HW2 7578   3.612   2.528   3.041
 1887SOL    HW3 7579   3.543   2.394   3.057
 1887SOL    MW4 7580   3.599   2.445   3.015
 1888SOL     OW 7581   3.551   2.670   3.153
 1888SOL    HW2 7582   3.621   2.733   3.139
 1888SOL    HW3 7583   3.472   2.714   3.122
 1888SOL    MW4 7584   3.550   2.684   3.147
 1889SOL     OW 7585   3.776   2.819   3.043
 1889SOL    HW2 7586   3.816   2.906   3.052
 1889SOL    HW3 7587   3.774   2.804   2.948
 1889SOL    MW4 7588   3.781   2.828   3.031
 1890SOL     OW 7589   3.882   3.077   3.104
 1890SOL    HW2 7590   3.958   3.122   3.067
 1890SOL    HW3 7591   3.808   3.135   3.085
 1890SOL    MW4 7592   3.882   3.091   3.097
 1891SOL     OW 7593   3.629   3.199   3.060
 1891SOL    HW2 7594   3.548   3.152   3.080
 1891SOL    HW3 7595   3.636   3.196   2.965
 1891SOL    MW4 7596   3.619   3.192   3.050
 1892SOL     OW 7597   3.602   3.467   3.116
 1892SOL    HW2 7598   3.685   3.495   3.077
 1892SOL    HW3 7599   3.609   3.371   3.121
 1892SOL    MW4 7600   3.613   3.458   3.112
 1893SOL     OW 7601   3.838   3.595   3.028
 1893SOL    HW2 7602   3.852   3.681   3.067
 1893SOL    HW3 7603   3.818   3.613   2.936
 1893SOL    MW4 7604   3.837   3.609   3.021
 1894SOL     OW 7605   3.856   3.851   3.140
 1894SOL    HW2 7606   3.841   3.846   3.234
 1894SOL    HW3 7607   3.782   3.901   3.107
 1894SOL    MW4 7608   3.845   3.857   3.148
 1895SOL     OW 7609   3.641   3.993   3.033
 1895SOL    HW2 7610   3.562   3.945   3.061
 1895SOL    HW3 7611   3.624   4.015   2.942
 1895SOL    MW4 7612   3.628   3.990   3.025
 1896SOL     OW 7613   3.619   4.262   3.103
 1896SOL    HW2 7614   3.681   4.315   3.053
 1896SOL    HW3 7615   3.641   4.172   3.082
 1896SOL    MW4 7616   3.630   4.257   3.094
 1897SOL     OW 7617   3.820   4.408   2.972
 1897SOL    HW2 7618   3.899   4.358   2.991
 1897SOL    HW3 7619   3.813   4.408   2.877
 1897SOL    MW4 7620   3.830   4.402   2.962
 1898SOL     OW 7621   4.251   0.005   3.120
 1898SOL    HW2 7622   4.236  -0.025   3.209
 1898SOL    HW3 7623   4.245  -0.074   3.066
 1898SOL    MW4 7624   4.248  -0.009   3.125
 1899SOL     OW 7625   4.031   0.128   3.007
 1899SOL    HW2 7626   4.104   0.082   3.049
 1899SOL    HW3 7627   3.953   0.088   3.043
 1899SOL    MW4 7628   4.031   0.117   3.017
 1900SOL     OW 7629   4.049   0.378   3.115
 1900SOL    HW2 7630   4.134   0.414   3.090
 1900SOL    HW3 7631   4.045   0.293   3.071
 1900SOL    MW4 7632   4.060   0.372   3.106
 1901SOL     OW 7633   4.268   0.518   3.010
 1901SOL    HW2 7634   4.260   0.604   3.051
 1901SOL    HW3 7635   4.285   0.537   2.918
 1901SOL    MW4 7636   4.269   0.532   3.003
 1902SOL     OW 7637   4.271   0.780   3.088
 1902SOL    HW2 7638   4.186   0.819   3.068
 1902SOL    HW3 7639   4.335   0.843   3.056
 1902SOL    MW4 7640   4.268   0.793   3.081
 1903SOL     OW 7641   4.037   0.886   3.011
 1903SOL    HW2 7642   4.031   0.973   3.051
 1903SOL    HW3 7643   4.043   0.902   2.917
 1903SOL    MW4 7644   4.037   0.899   3.004
 1904SOL     OW 7645   4.043   1.161   3.098
 1904SOL    HW2 7646   4.034   1.160   3.193
 1904SOL    HW3 7647   3.957   1.189   3.066
 1904SOL    MW4 7648   4.031   1.165   3.107
 1905SOL     OW 7649   4.276   1.277   2.997
 1905SOL    HW2 7650   4.199   1.235   3.036
 1905SOL    HW3 7651   4.269   1.256   2.904
 1905SOL    MW4 7652   4.265   1.268   2.990
 1906SOL     OW 7653   4.248   1.554   3.106
 1906SOL    HW2 7654   4.177   1.607   3.069
 1906SOL    HW3 7655   4.240   1.470   3.063
 1906SOL    MW4 7656   4.237   1.550   3.096
 1907SOL     OW 7657   4.012   1.678   2.992
 1907SOL    HW2 7658   4.011   1.752   3.053
 1907SOL    HW3 7659   3.945   1.618   3.026
 1907SOL    MW4 7660   4.003   1.680   3.004
 1908SOL     OW 7661   4.026   1.934   3.122
 1908SOL    HW2 7662   4.113   1.973   3.112
 1908SOL    HW3 7663   3.965   2.004   3.097
 1908SOL    MW4 7664   4.029   1.949   3.118
 1909SOL     OW 7665   4.279   2.050   3.024
 1909SOL    HW2 7666   4.293   2.137   3.062
 1909SOL    HW3 7667   4.256   2.068   2.933
 1909SOL    MW4 7668   4.278   2.064   3.017
 1910SOL     OW 7669   4.285   2.316   3.110
 1910SOL    HW2 7670   4.201   2.348   3.077
 1910SOL    HW3 7671   4.351   2.370   3.065
 1910SOL    MW4 7672   4.283   2.328   3.100
 1911SOL     OW 7673   4.052   2.457   3.019
 1911SOL    HW2 7674   4.067   2.546   3.052
 1911SOL    HW3 7675   3.985   2.421   3.077
 1911SOL    MW4 7676   4.045   2.464   3.031
 1912SOL     OW 7677   4.025   2.740   3.121
 1912SOL    HW2 7678   4.015   2.724   3.215
 1912SOL    HW3 7679   3.935   2.756   3.090
 1912SOL    MW4 7680   4.012   2.740   3.129
 1913SOL     OW 7681   4.256   2.855   3.009
 1913SOL    HW2 7682   4.179   2.818   3.052
 1913SOL    HW3 7683   4.330   2.813   3.053
 1913SOL    MW4 7684   4.256   2.844   3.020
 1914SOL     OW 7685   4.304   3.107   3.096
 1914SOL    HW2 7686   4.235   3.148   3.045
 1914SOL    HW3 7687   4.303   3.015   3.070
 1914SOL    MW4 7688   4.295   3.100   3.086
 1915SOL     OW 7689   4.087   3.236   2.994
 1915SOL    HW2 7690   4.075   3.323   3.031
 1915SOL    HW3 7691   4.071   3.247   2.901
 1915SOL    MW4 7692   4.084   3.249   2.987
 1916SOL     OW 7693   4.075   3.478   3.120
 1916SOL    HW2 7694   4.068   3.476   3.215
 1916SOL    HW3 7695   3.994   3.520   3.091
 1916SOL    MW4 7696   4.063   3.483   3.129
 1917SOL     OW 7697   4.260   3.648   2.996
 1917SOL    HW2 7698   4.270   3.735   3.033
 1917SOL    HW3 7699   4.179   3.614   3.034
 1917SOL    MW4 7700   4.250   3.655   3.006
 1918SOL     OW 7701   4.280   3.893   3.111
 1918SOL    HW2 7702   4.213   3.932   3.056
 1918SOL    HW3 7703   4.361   3.937   3.085
 1918SOL    MW4 7704   4.282   3.904   3.100
 1919SOL     OW 7705   4.057   4.011   2.983
 1919SOL    HW2 7706   4.041   4.096   3.025
 1919SOL    HW3 7707   4.000   3.950   3.030
 1919SOL    MW4 7708   4.047   4.014   2.995
 1920SOL     OW 7709   4.020   4.272   3.092
 1920SOL    HW2 7710   4.033   4.255   3.185
 1920SOL    HW3 7711   4.104   4.308   3.062
 1920SOL    MW4 7712   4.033   4.275   3.100
 1921SOL     OW 7713   4.268   4.419   2.996
 1921SOL    HW2 7714   4.348   4.378   3.029
 1921SOL    HW3 7715   4.285   4.431   2.903
 1921SOL    MW4 7716   4.281   4.415   2.988
 1922SOL     OW 7717   0.177   4.648   3.354
 1922SOL    HW2 7718   0.250   4.691   3.399
 1922SOL    HW3 7719   0.179   4.558   3.385
 1922SOL    MW4 7720   0.187   4.642   3.364
 1923SOL     OW 7721   4.469   0.117   3.477
 1923SOL    HW2 7722   4.478   0.205   3.441
 1923SOL    HW3 7723   4.538   0.066   3.433
 1923SOL    MW4 7724   4.479   0.122   3.466
 1924SOL     OW 7725   4.489   0.379   3.370
 1924SOL    HW2 7726   4.408   0.421   3.399
 1924SOL    HW3 7727   4.559   0.428   3.414
 1924SOL    MW4 7728   4.488   0.391   3.380
 1925SOL     OW 7729   0.204   0.502   3.512
 1925SOL    HW2 7730   0.274   0.468   3.457
 1925SOL    HW3 7731   0.193   0.593   3.484
 1925SOL    MW4 7732   0.212   0.510   3.501
 1926SOL     OW 7733   0.218   0.732   3.354
 1926SOL    HW2 7734   0.301   0.755   3.395
 1926SOL    HW3 7735   0.156   0.798   3.386
 1926SOL    MW4 7736   0.221   0.744   3.364
 1927SOL     OW 7737   4.480   0.870   3.453
 1927SOL    HW2 7738   4.468   0.880   3.548
 1927SOL    HW3 7739   4.470   0.958   3.418
 1927SOL    MW4 7740   4.477   0.883   3.461
 1928SOL     OW 7741   4.465   1.138   3.387
 1928SOL    HW2 7742   4.543   1.179   3.423
 1928SOL    HW3 7743   4.473   1.150   3.292
 1928SOL    MW4 7744   4.476   1.145   3.379
 1929SOL     OW 7745   0.228   1.277   3.461
 1929SOL    HW2 7746   0.310   1.238   3.432
 1929SOL    HW3 7747   0.230   1.366   3.426
 1929SOL    MW4 7748   0.239   1.284   3.453
 1930SOL     OW 7749   0.213   1.540   3.356
 1930SOL    HW2 7750   0.297   1.574   3.387
 1930SOL    HW3 7751   0.223   1.533   3.261
 1930SOL    MW4 7752   0.225   1.543   3.348
 1931SOL     OW 7753   4.463   1.640   3.473
 1931SOL    HW2 7754   4.388   1.584   3.452
 1931SOL    HW3 7755   4.537   1.599   3.429
 1931SOL    MW4 7756   4.463   1.627   3.465
 1932SOL     OW 7757   4.470   1.895   3.351
 1932SOL    HW2 7758   4.469   1.804   3.381
 1932SOL    HW3 7759   4.510   1.892   3.264
 1932SOL    MW4 7760   4.475   1.883   3.343
 1933SOL     OW 7761   0.215   2.031   3.450
 1933SOL    HW2 7762   0.208   2.024   3.545
 1933SOL    HW3 7763   0.138   1.985   3.417
 1933SOL    MW4 7764   0.204   2.024   3.458
 1934SOL     OW 7765   0.205   2.298   3.331
 1934SOL    HW2 7766   0.149   2.357   3.381
 1934SOL    HW3 7767   0.212   2.219   3.386
 1934SOL    MW4 7768   0.199   2.295   3.345
 1935SOL     OW 7769   0.021   2.464   3.449
 1935SOL    HW2 7770   0.013   2.461   3.544
 1935SOL    HW3 7771  -0.062   2.427   3.417
 1935SOL    MW4 7772   0.009   2.459   3.457
 1936SOL     OW 7773   4.486   2.734   3.366
 1936SOL    HW2 7774   4.560   2.784   3.400
 1936SOL    HW3 7775   4.504   2.643   3.392
 1936SOL    MW4 7776   4.498   2.728   3.374
 1937SOL     OW 7777   0.198   2.845   3.512
 1937SOL    HW2 7778   0.286   2.810   3.498
 1937SOL    HW3 7779   0.205   2.938   3.492
 1937SOL    MW4 7780   0.210   2.852   3.508
 1938SOL     OW 7781   0.258   3.104   3.397
 1938SOL    HW2 7782   0.184   3.156   3.427
 1938SOL    HW3 7783   0.254   3.110   3.301
 1938SOL    MW4 7784   0.247   3.111   3.388
 1939SOL     OW 7785   0.009   3.217   3.470
 1939SOL    HW2 7786  -0.076   3.187   3.437
 1939SOL    HW3 7787   0.012   3.310   3.447
 1939SOL    MW4 7788  -0.002   3.225   3.462
 1940SOL     OW 7789   0.026   3.486   3.418
 1940SOL    HW2 7790  -0.050   3.520   3.465
 1940SOL    HW3 7791   0.001   3.491   3.325
 1940SOL    MW4 7792   0.013   3.491   3.412
 1941SOL     OW 7793   0.263   3.601   3.486
 1941SOL    HW2 7794   0.262   3.616   3.580
 1941SOL    HW3 7795   0.184   3.549   3.470
 1941SOL    MW4 7796   0.252   3.596   3.496
 1942SOL     OW 7797   0.263   3.849   3.350
 1942SOL    HW2 7798   0.189   3.895   3.390
 1942SOL    HW3 7799   0.265   3.764   3.394
 1942SOL    MW4 7800   0.253   3.844   3.361
 1943SOL     OW 7801   0.029   3.971   3.441
 1943SOL    HW2 7802   0.012   3.978   3.535
 1943SOL    HW3 7803   0.021   4.061   3.408
 1943SOL    MW4 7804   0.025   3.984   3.449
 1944SOL     OW 7805   0.004   4.242   3.381
 1944SOL    HW2 7806  -0.079   4.283   3.406
 1944SOL    HW3 7807   0.070   4.289   3.431
 1944SOL    MW4 7808   0.002   4.254   3.391
 1945SOL     OW 7809   0.197   4.390   3.492
 1945SOL    HW2 7810   0.211   4.384   3.586
 1945SOL    HW3 7811   0.270   4.343   3.453
 1945SOL    MW4 7812   0.208   4.383   3.499
 1946SOL     OW 7813   0.623   0.005   3.361
 1946SOL    HW2 7814   0.694   0.060   3.395
 1946SOL    HW3 7815   0.633   0.010   3.266
 1946SOL    MW4 7816   0.634   0.013   3.353
 1947SOL     OW 7817   0.400   0.124   3.460
 1947SOL    HW2 7818   0.413   0.098   3.551
 1947SOL    HW3 7819   0.474   0.087   3.413
 1947SOL    MW4 7820   0.411   0.116   3.466
 1948SOL     OW 7821   0.406   0.392   3.370
 1948SOL    HW2 7822   0.486   0.419   3.414
 1948SOL    HW3 7823   0.393   0.301   3.396
 1948SOL    MW4 7824   0.414   0.384   3.379
 1949SOL     OW 7825   0.631   0.465   3.498
 1949SOL    HW2 7826   0.650   0.488   3.588
 1949SOL    HW3 7827   0.714   0.432   3.463
 1949SOL    MW4 7828   0.644   0.464   3.505
 1950SOL     OW 7829   0.674   0.697   3.383
 1950SOL    HW2 7830   0.591   0.739   3.408
 1950SOL    HW3 7831   0.666   0.607   3.415
 1950SOL    MW4 7832   0.662   0.691   3.390
 1951SOL     OW 7833   0.452   0.861   3.462
 1951SOL    HW2 7834   0.459   0.864   3.557
 1951SOL    HW3 7835   0.457   0.953   3.434
 1951SOL    MW4 7836   0.454   0.874   3.471
 1952SOL     OW 7837   0.456   1.149   3.384
 1952SOL    HW2 7838   0.534   1.185   3.426
 1952SOL    HW3 7839   0.472   1.160   3.290
 1952SOL    MW4 7840   0.468   1.155   3.377
 1953SOL     OW 7841   0.709   1.247   3.495
 1953SOL    HW2 7842   0.775   1.193   3.451
 1953SOL    HW3 7843   0.710   1.330   3.447
 1953SOL    MW4 7844   0.718   1.251   3.483
 1954SOL     OW 7845   0.691   1.488   3.361
 1954SOL    HW2 7846   0.757   1.555   3.381
 1954SOL    HW3 7847   0.608   1.526   3.391
 1954SOL    MW4 7848   0.689   1.502   3.368
 1955SOL     OW 7849   0.465   1.625   3.437
 1955SOL    HW2 7850   0.463   1.630   3.532
 1955SOL    HW3 7851   0.465   1.716   3.408
 1955SOL    MW4 7852   0.464   1.638   3.445
 1956SOL     OW 7853   0.449   1.902   3.364
 1956SOL    HW2 7854   0.369   1.946   3.395
 1956SOL    HW3 7855   0.450   1.917   3.269
 1956SOL    MW4 7856   0.438   1.910   3.355
 1957SOL     OW 7857   0.653   2.050   3.484
 1957SOL    HW2 7858   0.645   2.061   3.579
 1957SOL    HW3 7859   0.580   1.993   3.460
 1957SOL    MW4 7860   0.642   2.044   3.493
 1958SOL     OW 7861   0.647   2.306   3.398
 1958SOL    HW2 7862   0.724   2.354   3.427
 1958SOL    HW3 7863   0.660   2.217   3.431
 1958SOL    MW4 7864   0.659   2.300   3.406
 1959SOL     OW 7865   0.417   2.446   3.444
 1959SOL    HW2 7866   0.495   2.395   3.424
 1959SOL    HW3 7867   0.345   2.399   3.402
 1959SOL    MW4 7868   0.418   2.433   3.436
 1960SOL     OW 7869   0.435   2.719   3.424
 1960SOL    HW2 7870   0.447   2.629   3.453
 1960SOL    HW3 7871   0.434   2.715   3.329
 1960SOL    MW4 7872   0.436   2.707   3.416
 1961SOL     OW 7873   0.668   2.853   3.492
 1961SOL    HW2 7874   0.734   2.798   3.451
 1961SOL    HW3 7875   0.585   2.814   3.467
 1961SOL    MW4 7876   0.666   2.841   3.483
 1962SOL     OW 7877   0.690   3.131   3.407
 1962SOL    HW2 7878   0.614   3.169   3.451
 1962SOL    HW3 7879   0.687   3.038   3.429
 1962SOL    MW4 7880   0.679   3.124   3.415
 1963SOL     OW 7881   0.454   3.245   3.508
 1963SOL    HW2 7882   0.442   3.240   3.603
 1963SOL    HW3 7883   0.380   3.195   3.472
 1963SOL    MW4 7884   0.442   3.238   3.516
 1964SOL     OW 7885   0.476   3.487   3.379
 1964SOL    HW2 7886   0.474   3.400   3.418
 1964SOL    HW3 7887   0.397   3.531   3.412
 1964SOL    MW4 7888   0.465   3.482   3.389
 1965SOL     OW 7889   0.692   3.649   3.481
 1965SOL    HW2 7890   0.775   3.606   3.460
 1965SOL    HW3 7891   0.625   3.588   3.450
 1965SOL    MW4 7892   0.694   3.635   3.474
 1966SOL     OW 7893   0.707   3.896   3.372
 1966SOL    HW2 7894   0.622   3.938   3.386
 1966SOL    HW3 7895   0.701   3.815   3.422
 1966SOL    MW4 7896   0.695   3.891   3.381
 1967SOL     OW 7897   0.476   4.001   3.448
 1967SOL    HW2 7898   0.442   4.088   3.429
 1967SOL    HW3 7899   0.409   3.941   3.415
 1967SOL    MW4 7900   0.463   4.004   3.441
 1968SOL     OW 7901   0.419   4.280   3.397
 1968SOL    HW2 7902   0.491   4.337   3.424
 1968SOL    HW3 7903   0.414   4.291   3.302
 1968SOL    MW4 7904   0.428   4.289   3.388
 1969SOL     OW 7905   0.652   4.406   3.469
 1969SOL    HW2 7906   0.714   4.361   3.412
 1969SOL    HW3 7907   0.646   4.494   3.432
 1969SOL    MW4 7908   0.659   4.412   3.456
 1970SOL     OW 7909   1.053   4.641   3.415
 1970SOL    HW2 7910   1.136   4.682   3.439
 1970SOL    HW3 7911   1.052   4.641   3.319
 1970SOL    MW4 7912   1.063   4.646   3.406
 1971SOL     OW 7913   0.847   0.119   3.475
 1971SOL    HW2 7914   0.853   0.128   3.570
 1971SOL    HW3 7915   0.933   0.085   3.449
 1971SOL    MW4 7916   0.859   0.116   3.484
 1972SOL     OW 7917   0.855   0.359   3.364
 1972SOL    HW2 7918   0.941   0.392   3.389
 1972SOL    HW3 7919   0.849   0.273   3.407
 1972SOL    MW4 7920   0.865   0.352   3.373
 1973SOL     OW 7921   1.073   0.488   3.473
 1973SOL    HW2 7922   1.088   0.486   3.568
 1973SOL    HW3 7923   1.068   0.581   3.452
 1973SOL    MW4 7924   1.074   0.500   3.483
 1974SOL     OW 7925   1.115   0.757   3.413
 1974SOL    HW2 7926   1.195   0.802   3.441
 1974SOL    HW3 7927   1.044   0.807   3.455
 1974SOL    MW4 7928   1.116   0.770   3.422
 1975SOL     OW 7929   0.884   0.865   3.502
 1975SOL    HW2 7930   0.876   0.946   3.452
 1975SOL    HW3 7931   0.823   0.805   3.460
 1975SOL    MW4 7932   0.875   0.868   3.490
 1976SOL     OW 7933   0.905   1.113   3.368
 1976SOL    HW2 7934   0.979   1.167   3.396
 1976SOL    HW3 7935   0.886   1.144   3.279
 1976SOL    MW4 7936   0.912   1.125   3.360
 1977SOL     OW 7937   1.107   1.278   3.476
 1977SOL    HW2 7938   1.138   1.275   3.566
 1977SOL    HW3 7939   1.111   1.371   3.452
 1977SOL    MW4 7940   1.112   1.290   3.485
 1978SOL     OW 7941   1.136   1.523   3.388
 1978SOL    HW2 7942   1.208   1.573   3.425
 1978SOL    HW3 7943   1.132   1.551   3.296
 1978SOL    MW4 7944   1.145   1.533   3.381
 1979SOL     OW 7945   0.902   1.653   3.437
 1979SOL    HW2 7946   0.920   1.746   3.426
 1979SOL    HW3 7947   0.988   1.611   3.434
 1979SOL    MW4 7948   0.915   1.660   3.435
 1980SOL     OW 7949   0.881   1.954   3.382
 1980SOL    HW2 7950   0.950   1.996   3.433
 1980SOL    HW3 7951   0.800   1.982   3.424
 1980SOL    MW4 7952   0.879   1.963   3.394
 1981SOL     OW 7953   1.105   2.084   3.523
 1981SOL    HW2 7954   1.169   2.042   3.465
 1981SOL    HW3 7955   1.090   2.170   3.483
 1981SOL    MW4 7956   1.112   2.090   3.510
 1982SOL     OW 7957   1.125   2.356   3.383
 1982SOL    HW2 7958   1.205   2.388   3.425
 1982SOL    HW3 7959   1.152   2.331   3.295
 1982SOL    MW4 7960   1.139   2.357   3.377
 1983SOL     OW 7961   0.865   2.431   3.497
 1983SOL    HW2 7962   0.861   2.421   3.593
 1983SOL    HW3 7963   0.948   2.390   3.473
 1983SOL    MW4 7964   0.875   2.424   3.507
 1984SOL     OW 7965   0.866   2.706   3.383
 1984SOL    HW2 7966   0.952   2.741   3.406
 1984SOL    HW3 7967   0.872   2.612   3.404
 1984SOL    MW4 7968   0.878   2.698   3.389
 1985SOL     OW 7969   1.101   2.836   3.462
 1985SOL    HW2 7970   1.094   2.855   3.555
 1985SOL    HW3 7971   1.172   2.772   3.455
 1985SOL    MW4 7972   1.109   2.830   3.473
 1986SOL     OW 7973   1.097   3.089   3.383
 1986SOL    HW2 7974   1.103   2.998   3.411
 1986SOL    HW3 7975   1.120   3.088   3.290
 1986SOL    MW4 7976   1.101   3.077   3.375
 1987SOL     OW 7977   0.915   3.259   3.525
 1987SOL    HW2 7978   0.985   3.214   3.476
 1987SOL    HW3 7979   0.834   3.220   3.493
 1987SOL    MW4 7980   0.914   3.248   3.515
 1988SOL     OW 7981   0.907   3.524   3.408
 1988SOL    HW2 7982   0.907   3.431   3.430
 1988SOL    HW3 7983   0.898   3.526   3.313
 1988SOL    MW4 7984   0.906   3.512   3.398
 1989SOL     OW 7985   1.148   3.635   3.485
 1989SOL    HW2 7986   1.147   3.618   3.579
 1989SOL    HW3 7987   1.067   3.597   3.453
 1989SOL    MW4 7988   1.137   3.628   3.493
 1990SOL     OW 7989   1.136   3.934   3.414
 1990SOL    HW2 7990   1.220   3.961   3.450
 1990SOL    HW3 7991   1.130   3.841   3.435
 1990SOL    MW4 7992   1.146   3.925   3.421
 1991SOL     OW 7993   0.900   4.032   3.508
 1991SOL    HW2 7994   0.983   3.996   3.477
 1991SOL    HW3 7995   0.833   3.984   3.460
 1991SOL    MW4 7996   0.902   4.021   3.498
 1992SOL     OW 7997   0.875   4.272   3.365
 1992SOL    HW2 7998   0.890   4.191   3.414
 1992SOL    HW3 7999   0.890   4.247   3.274
 1992SOL    MW4 8000   0.879   4.258   3.360
 1993SOL     OW 8001   1.117   4.391   3.499
 1993SOL    HW2 8002   1.049   4.343   3.453
 1993SOL    HW3 8003   1.104   4.482   3.473
 1993SOL    MW4 8004   1.107   4.397   3.490
 1994SOL     OW 8005   1.565   4.620   3.413
 1994SOL    HW2 8006   1.558   4.542   3.469
 1994SOL    HW3 8007   1.481   4.665   3.425
 1994SOL    MW4 8008   1.553   4.616   3.422
 1995SOL     OW 8009   1.324   0.073   3.444
 1995SOL    HW2 8010   1.336   0.077   3.538
 1995SOL    HW3 8011   1.314   0.164   3.416
 1995SOL    MW4 8012   1.325   0.085   3.452
 1996SOL     OW 8013   1.297   0.335   3.388
 1996SOL    HW2 8014   1.374   0.376   3.428
 1996SOL    HW3 8015   1.224   0.392   3.412
 1996SOL    MW4 8016   1.298   0.348   3.396
 1997SOL     OW 8017   1.550   0.426   3.510
 1997SOL    HW2 8018   1.561   0.449   3.602
 1997SOL    HW3 8019   1.633   0.385   3.485
 1997SOL    MW4 8020   1.563   0.423   3.519
 1998SOL     OW 8021   1.571   0.722   3.397
 1998SOL    HW2 8022   1.490   0.767   3.418
 1998SOL    HW3 8023   1.561   0.635   3.436
 1998SOL    MW4 8024   1.559   0.716   3.405
 1999SOL     OW 8025   1.349   0.862   3.502
 1999SOL    HW2 8026   1.348   0.839   3.595
 1999SOL    HW3 8027   1.354   0.958   3.502
 1999SOL    MW4 8028   1.349   0.872   3.515
 2000SOL     OW 8029   1.355   1.137   3.447
 2000SOL    HW2 8030   1.423   1.204   3.457
 2000SOL    HW3 8031   1.274   1.187   3.436
 2000SOL    MW4 8032   1.353   1.152   3.447
 2001SOL     OW 8033   1.562   1.310   3.497
 2001SOL    HW2 8034   1.572   1.318   3.592
 2001SOL    HW3 8035   1.634   1.254   3.470
 2001SOL    MW4 8036   1.573   1.303   3.506
 2002SOL     OW 8037   1.571   1.582   3.398
 2002SOL    HW2 8038   1.565   1.491   3.429
 2002SOL    HW3 8039   1.546   1.577   3.306
 2002SOL    MW4 8040   1.567   1.569   3.390
 2003SOL     OW 8041   1.340   1.688   3.485
 2003SOL    HW2 8042   1.331   1.692   3.580
 2003SOL    HW3 8043   1.429   1.658   3.470
 2003SOL    MW4 8044   1.350   1.685   3.495
 2004SOL     OW 8045   1.319   1.943   3.382
 2004SOL    HW2 8046   1.393   1.991   3.420
 2004SOL    HW3 8047   1.325   1.856   3.420
 2004SOL    MW4 8048   1.330   1.938   3.392
 2005SOL     OW 8049   1.541   2.059   3.488
 2005SOL    HW2 8050   1.628   2.024   3.470
 2005SOL    HW3 8051   1.543   2.147   3.451
 2005SOL    MW4 8052   1.553   2.066   3.481
 2006SOL     OW 8053   1.550   2.313   3.375
 2006SOL    HW2 8054   1.475   2.361   3.410
 2006SOL    HW3 8055   1.548   2.330   3.281
 2006SOL    MW4 8056   1.540   2.321   3.368
 2007SOL     OW 8057   1.348   2.430   3.507
 2007SOL    HW2 8058   1.339   2.441   3.602
 2007SOL    HW3 8059   1.337   2.519   3.472
 2007SOL    MW4 8060   1.345   2.444   3.515
 2008SOL     OW 8061   1.325   2.685   3.418
 2008SOL    HW2 8062   1.401   2.735   3.449
 2008SOL    HW3 8063   1.324   2.701   3.324
 2008SOL    MW4 8064   1.335   2.694   3.410
 2009SOL     OW 8065   1.549   2.838   3.495
 2009SOL    HW2 8066   1.620   2.784   3.462
 2009SOL    HW3 8067   1.570   2.927   3.465
 2009SOL    MW4 8068   1.561   2.843   3.487
 2010SOL     OW 8069   1.566   3.110   3.391
 2010SOL    HW2 8070   1.631   3.169   3.429
 2010SOL    HW3 8071   1.482   3.146   3.419
 2010SOL    MW4 8072   1.563   3.122   3.400
 2011SOL     OW 8073   1.325   3.228   3.478
 2011SOL    HW2 8074   1.318   3.218   3.573
 2011SOL    HW3 8075   1.247   3.184   3.444
 2011SOL    MW4 8076   1.313   3.221   3.486
 2012SOL     OW 8077   1.342   3.495   3.368
 2012SOL    HW2 8078   1.338   3.405   3.400
 2012SOL    HW3 8079   1.271   3.540   3.415
 2012SOL    MW4 8080   1.332   3.489   3.378
 2013SOL     OW 8081   1.554   3.659   3.439
 2013SOL    HW2 8082   1.552   3.658   3.535
 2013SOL    HW3 8083   1.481   3.603   3.412
 2013SOL    MW4 8084   1.544   3.652   3.448
 2014SOL     OW 8085   1.589   3.912   3.341
 2014SOL    HW2 8086   1.587   3.821   3.369
 2014SOL    HW3 8087   1.589   3.908   3.245
 2014SOL    MW4 8088   1.589   3.900   3.332
 2015SOL     OW 8089   1.388   4.024   3.497
 2015SOL    HW2 8090   1.376   4.115   3.470
 2015SOL    HW3 8091   1.463   3.993   3.447
 2015SOL    MW4 8092   1.396   4.032   3.487
 2016SOL     OW 8093   1.362   4.279   3.401
 2016SOL    HW2 8094   1.270   4.303   3.415
 2016SOL    HW3 8095   1.369   4.265   3.307
 2016SOL    MW4 8096   1.351   4.280   3.391
 2017SOL     OW 8097   1.599   4.363   3.520
 2017SOL    HW2 8098   1.667   4.334   3.460
 2017SOL    HW3 8099   1.520   4.316   3.490
 2017SOL    MW4 8100   1.597   4.353   3.508
 2018SOL     OW 8101   2.056   4.621   3.433
 2018SOL    HW2 8102   2.115   4.683   3.476
 2018SOL    HW3 8103   1.968   4.656   3.450
 2018SOL    MW4 8104   2.052   4.634   3.441
 2019SOL     OW 8105   1.801   0.071   3.512
 2019SOL    HW2 8106   1.809   0.067   3.608
 2019SOL    HW3 8107   1.721   0.022   3.494
 2019SOL    MW4 8108   1.791   0.064   3.522
 2020SOL     OW 8109   1.778   0.335   3.426
 2020SOL    HW2 8110   1.789   0.245   3.457
 2020SOL    HW3 8111   1.783   0.329   3.331
 2020SOL    MW4 8112   1.780   0.323   3.417
 2021SOL     OW 8113   2.025   0.458   3.465
 2021SOL    HW2 8114   2.016   0.550   3.440
 2021SOL    HW3 8115   1.936   0.423   3.462
 2021SOL    MW4 8116   2.012   0.466   3.461
 2022SOL     OW 8117   2.017   0.738   3.420
 2022SOL    HW2 8118   2.100   0.777   3.447
 2022SOL    HW3 8119   2.016   0.747   3.325
 2022SOL    MW4 8120   2.028   0.744   3.411
 2023SOL     OW 8121   1.785   0.876   3.496
 2023SOL    HW2 8122   1.869   0.838   3.470
 2023SOL    HW3 8123   1.720   0.811   3.472
 2023SOL    MW4 8124   1.788   0.863   3.490
 2024SOL     OW 8125   1.775   1.145   3.418
 2024SOL    HW2 8126   1.856   1.190   3.440
 2024SOL    HW3 8127   1.780   1.061   3.463
 2024SOL    MW4 8128   1.786   1.140   3.427
 2025SOL     OW 8129   2.015   1.268   3.497
 2025SOL    HW2 8130   2.018   1.284   3.591
 2025SOL    HW3 8131   2.000   1.354   3.458
 2025SOL    MW4 8132   2.014   1.281   3.504
 2026SOL     OW 8133   1.969   1.546   3.396
 2026SOL    HW2 8134   2.055   1.570   3.431
 2026SOL    HW3 8135   1.907   1.584   3.458
 2026SOL    MW4 8136   1.972   1.554   3.409
 2027SOL     OW 8137   1.782   1.708   3.534
 2027SOL    HW2 8138   1.777   1.793   3.490
 2027SOL    HW3 8139   1.704   1.661   3.504
 2027SOL    MW4 8140   1.771   1.713   3.524
 2028SOL     OW 8141   1.763   1.947   3.381
 2028SOL    HW2 8142   1.838   1.999   3.408
 2028SOL    HW3 8143   1.769   1.944   3.285
 2028SOL    MW4 8144   1.774   1.953   3.372
 2029SOL     OW 8145   1.979   2.065   3.508
 2029SOL    HW2 8146   2.054   2.011   3.481
 2029SOL    HW3 8147   1.998   2.151   3.471
 2029SOL    MW4 8148   1.991   2.069   3.500
 2030SOL     OW 8149   2.028   2.313   3.359
 2030SOL    HW2 8150   2.111   2.356   3.379
 2030SOL    HW3 8151   2.021   2.317   3.264
 2030SOL    MW4 8152   2.038   2.319   3.349
 2031SOL     OW 8153   1.808   2.438   3.473
 2031SOL    HW2 8154   1.884   2.390   3.441
 2031SOL    HW3 8155   1.733   2.390   3.439
 2031SOL    MW4 8156   1.808   2.425   3.464
 2032SOL     OW 8157   1.769   2.689   3.395
 2032SOL    HW2 8158   1.849   2.735   3.421
 2032SOL    HW3 8159   1.792   2.596   3.400
 2032SOL    MW4 8160   1.782   2.683   3.399
 2033SOL     OW 8161   2.000   2.829   3.450
 2033SOL    HW2 8162   1.993   2.845   3.544
 2033SOL    HW3 8163   1.990   2.916   3.410
 2033SOL    MW4 8164   1.998   2.843   3.458
 2034SOL     OW 8165   1.975   3.106   3.372
 2034SOL    HW2 8166   2.062   3.135   3.400
 2034SOL    HW3 8167   1.914   3.154   3.428
 2034SOL    MW4 8168   1.979   3.116   3.383
 2035SOL     OW 8169   1.775   3.255   3.493
 2035SOL    HW2 8170   1.762   3.255   3.588
 2035SOL    HW3 8171   1.782   3.348   3.470
 2035SOL    MW4 8172   1.774   3.267   3.502
 2036SOL     OW 8173   1.794   3.516   3.391
 2036SOL    HW2 8174   1.711   3.564   3.397
 2036SOL    HW3 8175   1.815   3.517   3.298
 2036SOL    MW4 8176   1.786   3.522   3.379
 2037SOL     OW 8177   2.036   3.574   3.514
 2037SOL    HW2 8178   2.098   3.515   3.472
 2037SOL    HW3 8179   1.950   3.541   3.489
 2037SOL    MW4 8180   2.033   3.562   3.505
 2038SOL     OW 8181   2.054   3.817   3.340
 2038SOL    HW2 8182   1.984   3.873   3.375
 2038SOL    HW3 8183   2.051   3.739   3.394
 2038SOL    MW4 8184   2.044   3.814   3.352
 2039SOL     OW 8185   1.845   3.986   3.440
 2039SOL    HW2 8186   1.858   3.980   3.535
 2039SOL    HW3 8187   1.761   3.944   3.425
 2039SOL    MW4 8188   1.836   3.979   3.451
 2040SOL     OW 8189   1.776   4.247   3.355
 2040SOL    HW2 8190   1.786   4.153   3.374
 2040SOL    HW3 8191   1.786   4.253   3.260
 2040SOL    MW4 8192   1.779   4.235   3.345
 2041SOL     OW 8193   1.997   4.350   3.491
 2041SOL    HW2 8194   1.926   4.314   3.438
 2041SOL    HW3 8195   2.006   4.440   3.462
 2041SOL    MW4 8196   1.989   4.357   3.480
 2042SOL     OW 8197   2.515   4.642   3.441
 2042SOL    HW2 8198   2.496   4.557   3.482
 2042SOL    HW3 8199   2.521   4.623   3.348
 2042SOL    MW4 8200   2.513   4.628   3.434
 2043SOL     OW 8201   2.285   0.116   3.519
 2043SOL    HW2 8202   2.282   0.195   3.465
 2043SOL    HW3 8203   2.367   0.073   3.493
 2043SOL    MW4 8204   2.296   0.121   3.508
 2044SOL     OW 8205   2.253   0.336   3.352
 2044SOL    HW2 8206   2.319   0.383   3.403
 2044SOL    HW3 8207   2.170   0.370   3.386
 2044SOL    MW4 8208   2.251   0.347   3.363
 2045SOL     OW 8209   2.445   0.456   3.505
 2045SOL    HW2 8210   2.539   0.439   3.512
 2045SOL    HW3 8211   2.439   0.537   3.454
 2045SOL    MW4 8212   2.457   0.464   3.499
 2046SOL     OW 8213   2.410   0.698   3.366
 2046SOL    HW2 8214   2.487   0.737   3.407
 2046SOL    HW3 8215   2.431   0.697   3.272
 2046SOL    MW4 8216   2.423   0.703   3.359
 2047SOL     OW 8217   2.247   0.872   3.485
 2047SOL    HW2 8218   2.227   0.949   3.431
 2047SOL    HW3 8219   2.305   0.819   3.430
 2047SOL    MW4 8220   2.252   0.875   3.470
 2048SOL     OW 8221   2.223   1.116   3.360
 2048SOL    HW2 8222   2.303   1.151   3.400
 2048SOL    HW3 8223   2.152   1.164   3.404
 2048SOL    MW4 8224   2.224   1.127   3.371
 2049SOL     OW 8225   2.447   1.225   3.443
 2049SOL    HW2 8226   2.450   1.227   3.538
 2049SOL    HW3 8227   2.531   1.186   3.417
 2049SOL    MW4 8228   2.459   1.220   3.452
 2050SOL     OW 8229   2.465   1.525   3.395
 2050SOL    HW2 8230   2.455   1.430   3.407
 2050SOL    HW3 8231   2.467   1.537   3.300
 2050SOL    MW4 8232   2.464   1.514   3.384
 2051SOL     OW 8233   2.217   1.626   3.506
 2051SOL    HW2 8234   2.229   1.613   3.600
 2051SOL    HW3 8235   2.293   1.584   3.466
 2051SOL    MW4 8236   2.229   1.619   3.513
 2052SOL     OW 8237   2.210   1.913   3.441
 2052SOL    HW2 8238   2.221   1.826   3.480
 2052SOL    HW3 8239   2.243   1.904   3.352
 2052SOL    MW4 8240   2.216   1.900   3.435
 2053SOL     OW 8241   2.444   2.084   3.484
 2053SOL    HW2 8242   2.462   2.086   3.578
 2053SOL    HW3 8243   2.357   2.046   3.477
 2053SOL    MW4 8244   2.435   2.079   3.495
 2054SOL     OW 8245   2.466   2.341   3.390
 2054SOL    HW2 8246   2.538   2.380   3.440
 2054SOL    HW3 8247   2.450   2.257   3.433
 2054SOL    MW4 8248   2.473   2.335   3.402
 2055SOL     OW 8249   2.230   2.456   3.474
 2055SOL    HW2 8250   2.227   2.546   3.443
 2055SOL    HW3 8251   2.317   2.425   3.449
 2055SOL    MW4 8252   2.241   2.464   3.467
 2056SOL     OW 8253   2.233   2.718   3.383
 2056SOL    HW2 8254   2.150   2.756   3.413
 2056SOL    HW3 8255   2.229   2.724   3.288
 2056SOL    MW4 8256   2.221   2.724   3.374
 2057SOL     OW 8257   2.458   2.830   3.490
 2057SOL    HW2 8258   2.468   2.908   3.436
 2057SOL    HW3 8259   2.375   2.791   3.461
 2057SOL    MW4 8260   2.448   2.835   3.479
 2058SOL     OW 8261   2.476   3.084   3.347
 2058SOL    HW2 8262   2.557   3.123   3.379
 2058SOL    HW3 8263   2.485   3.083   3.252
 2058SOL    MW4 8264   2.488   3.089   3.339
 2059SOL     OW 8265   2.241   3.167   3.451
 2059SOL    HW2 8266   2.249   3.184   3.545
 2059SOL    HW3 8267   2.328   3.136   3.425
 2059SOL    MW4 8268   2.253   3.165   3.460
 2060SOL     OW 8269   2.225   3.425   3.364
 2060SOL    HW2 8270   2.225   3.336   3.400
 2060SOL    HW3 8271   2.265   3.416   3.277
 2060SOL    MW4 8272   2.231   3.412   3.357
 2061SOL     OW 8273   2.453   3.526   3.489
 2061SOL    HW2 8274   2.458   3.620   3.469
 2061SOL    HW3 8275   2.368   3.499   3.455
 2061SOL    MW4 8276   2.442   3.535   3.482
 2062SOL     OW 8277   2.482   3.804   3.392
 2062SOL    HW2 8278   2.558   3.848   3.431
 2062SOL    HW3 8279   2.407   3.855   3.423
 2062SOL    MW4 8280   2.482   3.817   3.401
 2063SOL     OW 8281   2.270   3.982   3.437
 2063SOL    HW2 8282   2.258   4.076   3.419
 2063SOL    HW3 8283   2.195   3.940   3.395
 2063SOL    MW4 8284   2.259   3.989   3.429
 2064SOL     OW 8285   2.233   4.260   3.398
 2064SOL    HW2 8286   2.153   4.301   3.430
 2064SOL    HW3 8287   2.223   4.257   3.303
 2064SOL    MW4 8288   2.221   4.265   3.390
 2065SOL     OW 8289   2.472   4.362   3.515
 2065SOL    HW2 8290   2.460   4.356   3.610
 2065SOL    HW3 8291   2.390   4.328   3.479
 2065SOL    MW4 8292   2.460   4.357   3.523
 2066SOL     OW 8293   2.925   4.619   3.424
 2066SOL    HW2 8294   2.857   4.670   3.468
 2066SOL    HW3 8295   2.906   4.629   3.330
 2066SOL    MW4 8296   2.914   4.627   3.417
 2067SOL     OW 8297   2.732   0.089   3.553
 2067SOL    HW2 8298   2.721   0.173   3.510
 2067SOL    HW3 8299   2.652   0.040   3.531
 2067SOL    MW4 8300   2.720   0.093   3.544
 2068SOL     OW 8301   2.712   0.344   3.434
 2068SOL    HW2 8302   2.779   0.407   3.458
 2068SOL    HW3 8303   2.721   0.335   3.339
 2068SOL    MW4 8304   2.722   0.351   3.425
 2069SOL     OW 8305   2.948   0.485   3.508
 2069SOL    HW2 8306   2.916   0.495   3.598
 2069SOL    HW3 8307   2.931   0.569   3.467
 2069SOL    MW4 8308   2.942   0.497   3.514
 2070SOL     OW 8309   2.936   0.708   3.357
 2070SOL    HW2 8310   3.006   0.769   3.381
 2070SOL    HW3 8311   2.856   0.752   3.384
 2070SOL    MW4 8312   2.935   0.722   3.364
 2071SOL     OW 8313   2.671   0.800   3.425
 2071SOL    HW2 8314   2.663   0.819   3.518
 2071SOL    HW3 8315   2.655   0.884   3.382
 2071SOL    MW4 8316   2.668   0.813   3.432
 2072SOL     OW 8317   2.668   1.087   3.369
 2072SOL    HW2 8318   2.736   1.141   3.410
 2072SOL    HW3 8319   2.685   1.093   3.275
 2072SOL    MW4 8320   2.679   1.095   3.362
 2073SOL     OW 8321   2.861   1.255   3.459
 2073SOL    HW2 8322   2.885   1.251   3.552
 2073SOL    HW3 8323   2.932   1.208   3.414
 2073SOL    MW4 8324   2.873   1.248   3.466
 2074SOL     OW 8325   2.867   1.524   3.336
 2074SOL    HW2 8326   2.805   1.585   3.377
 2074SOL    HW3 8327   2.848   1.439   3.376
 2074SOL    MW4 8328   2.857   1.521   3.347
 2075SOL     OW 8329   2.683   1.661   3.476
 2075SOL    HW2 8330   2.660   1.752   3.457
 2075SOL    HW3 8331   2.604   1.612   3.453
 2075SOL    MW4 8332   2.669   1.667   3.470
 2076SOL     OW 8333   2.654   1.929   3.422
 2076SOL    HW2 8334   2.570   1.972   3.436
 2076SOL    HW3 8335   2.663   1.924   3.327
 2076SOL    MW4 8336   2.644   1.934   3.411
 2077SOL     OW 8337   2.896   2.059   3.487
 2077SOL    HW2 8338   2.915   2.044   3.580
 2077SOL    HW3 8339   2.807   2.026   3.474
 2077SOL    MW4 8340   2.887   2.053   3.497
 2078SOL     OW 8341   2.873   2.313   3.357
 2078SOL    HW2 8342   2.858   2.226   3.394
 2078SOL    HW3 8343   2.895   2.296   3.265
 2078SOL    MW4 8344   2.874   2.299   3.349
 2079SOL     OW 8345   2.692   2.465   3.520
 2079SOL    HW2 8346   2.683   2.435   3.611
 2079SOL    HW3 8347   2.760   2.409   3.483
 2079SOL    MW4 8348   2.700   2.454   3.527
 2080SOL     OW 8349   2.655   2.689   3.366
 2080SOL    HW2 8350   2.669   2.607   3.414
 2080SOL    HW3 8351   2.582   2.731   3.411
 2080SOL    MW4 8352   2.647   2.683   3.378
 2081SOL     OW 8353   2.895   2.796   3.468
 2081SOL    HW2 8354   2.892   2.800   3.563
 2081SOL    HW3 8355   2.805   2.774   3.443
 2081SOL    MW4 8356   2.883   2.794   3.477
 2082SOL     OW 8357   2.980   3.061   3.416
 2082SOL    HW2 8358   2.954   2.976   3.452
 2082SOL    HW3 8359   2.972   3.051   3.321
 2082SOL    MW4 8360   2.975   3.049   3.408
 2083SOL     OW 8361   2.722   3.192   3.462
 2083SOL    HW2 8362   2.702   3.187   3.556
 2083SOL    HW3 8363   2.804   3.143   3.453
 2083SOL    MW4 8364   2.730   3.185   3.473
 2084SOL     OW 8365   2.684   3.440   3.374
 2084SOL    HW2 8366   2.694   3.345   3.387
 2084SOL    HW3 8367   2.599   3.461   3.412
 2084SOL    MW4 8368   2.674   3.430   3.381
 2085SOL     OW 8369   2.908   3.558   3.496
 2085SOL    HW2 8370   2.923   3.647   3.465
 2085SOL    HW3 8371   2.833   3.527   3.446
 2085SOL    MW4 8372   2.900   3.566   3.485
 2086SOL     OW 8373   2.935   3.811   3.373
 2086SOL    HW2 8374   3.016   3.847   3.409
 2086SOL    HW3 8375   2.866   3.866   3.410
 2086SOL    MW4 8376   2.936   3.823   3.383
 2087SOL     OW 8377   2.716   3.953   3.495
 2087SOL    HW2 8378   2.706   3.958   3.590
 2087SOL    HW3 8379   2.687   4.039   3.463
 2087SOL    MW4 8380   2.711   3.965   3.503
 2088SOL     OW 8381   2.668   4.222   3.387
 2088SOL    HW2 8382   2.753   4.266   3.397
 2088SOL    HW3 8383   2.607   4.276   3.438
 2088SOL    MW4 8384   2.671   4.235   3.395
 2089SOL     OW 8385   2.939   4.349   3.455
 2089SOL    HW2 8386   2.940   4.338   3.550
 2089SOL    HW3 8387   2.934   4.444   3.441
 2089SOL    MW4 8388   2.939   4.360   3.465
 2090SOL     OW 8389   3.404   0.008   3.413
 2090SOL    HW2 8390   3.320   0.045   3.438
 2090SOL    HW3 8391   3.394  -0.014   3.320
 2090SOL    MW4 8392   3.392   0.010   3.404
 2091SOL     OW 8393   3.144   0.115   3.503
 2091SOL    HW2 8394   3.135   0.200   3.461
 2091SOL    HW3 8395   3.062   0.070   3.484
 2091SOL    MW4 8396   3.132   0.120   3.495
 2092SOL     OW 8397   3.152   0.358   3.377
 2092SOL    HW2 8398   3.076   0.404   3.411
 2092SOL    HW3 8399   3.142   0.364   3.282
 2092SOL    MW4 8400   3.141   0.365   3.369
 2093SOL     OW 8401   3.368   0.491   3.472
 2093SOL    HW2 8402   3.365   0.481   3.567
 2093SOL    HW3 8403   3.301   0.432   3.439
 2093SOL    MW4 8404   3.359   0.482   3.480
 2094SOL     OW 8405   3.345   0.737   3.348
 2094SOL    HW2 8406   3.421   0.777   3.388
 2094SOL    HW3 8407   3.342   0.648   3.385
 2094SOL    MW4 8408   3.354   0.730   3.358
 2095SOL     OW 8409   3.133   0.877   3.447
 2095SOL    HW2 8410   3.118   0.951   3.388
 2095SOL    HW3 8411   3.218   0.842   3.422
 2095SOL    MW4 8412   3.142   0.882   3.436
 2096SOL     OW 8413   3.082   1.118   3.336
 2096SOL    HW2 8414   3.164   1.151   3.373
 2096SOL    HW3 8415   3.090   1.133   3.242
 2096SOL    MW4 8416   3.094   1.124   3.328
 2097SOL     OW 8417   3.336   1.232   3.418
 2097SOL    HW2 8418   3.418   1.184   3.412
 2097SOL    HW3 8419   3.358   1.322   3.393
 2097SOL    MW4 8420   3.350   1.238   3.414
 2098SOL     OW 8421   3.344   1.515   3.390
 2098SOL    HW2 8422   3.415   1.567   3.428
 2098SOL    HW3 8423   3.265   1.545   3.436
 2098SOL    MW4 8424   3.343   1.526   3.402
 2099SOL     OW 8425   3.091   1.632   3.479
 2099SOL    HW2 8426   3.084   1.727   3.469
 2099SOL    HW3 8427   3.010   1.598   3.440
 2099SOL    MW4 8428   3.080   1.640   3.473
 2100SOL     OW 8429   3.121   1.908   3.438
 2100SOL    HW2 8430   3.045   1.962   3.460
 2100SOL    HW3 8431   3.122   1.908   3.342
 2100SOL    MW4 8432   3.111   1.915   3.428
 2101SOL     OW 8433   3.362   2.047   3.501
 2101SOL    HW2 8434   3.364   2.138   3.472
 2101SOL    HW3 8435   3.277   2.014   3.470
 2101SOL    MW4 8436   3.351   2.055   3.493
 2102SOL     OW 8437   3.366   2.302   3.372
 2102SOL    HW2 8438   3.422   2.344   3.438
 2102SOL    HW3 8439   3.278   2.335   3.391
 2102SOL    MW4 8440   3.362   2.312   3.383
 2103SOL     OW 8441   3.116   2.401   3.466
 2103SOL    HW2 8442   3.125   2.492   3.437
 2103SOL    HW3 8443   3.052   2.363   3.406
 2103SOL    MW4 8444   3.109   2.408   3.455
 2104SOL     OW 8445   3.141   2.698   3.380
 2104SOL    HW2 8446   3.209   2.734   3.436
 2104SOL    HW3 8447   3.060   2.739   3.411
 2104SOL    MW4 8448   3.139   2.708   3.391
 2105SOL     OW 8449   3.356   2.804   3.516
 2105SOL    HW2 8450   3.429   2.747   3.492
 2105SOL    HW3 8451   3.378   2.889   3.478
 2105SOL    MW4 8452   3.369   2.808   3.508
 2106SOL     OW 8453   3.400   3.049   3.393
 2106SOL    HW2 8454   3.478   3.092   3.428
 2106SOL    HW3 8455   3.327   3.092   3.437
 2106SOL    MW4 8456   3.400   3.060   3.404
 2107SOL     OW 8457   3.202   3.215   3.492
 2107SOL    HW2 8458   3.178   3.306   3.473
 2107SOL    HW3 8459   3.123   3.164   3.473
 2107SOL    MW4 8460   3.189   3.220   3.487
 2108SOL     OW 8461   3.167   3.471   3.410
 2108SOL    HW2 8462   3.083   3.514   3.431
 2108SOL    HW3 8463   3.163   3.456   3.316
 2108SOL    MW4 8464   3.155   3.475   3.401
 2109SOL     OW 8465   3.420   3.556   3.509
 2109SOL    HW2 8466   3.410   3.646   3.479
 2109SOL    HW3 8467   3.335   3.515   3.491
 2109SOL    MW4 8468   3.407   3.562   3.503
 2110SOL     OW 8469   3.392   3.808   3.389
 2110SOL    HW2 8470   3.468   3.860   3.415
 2110SOL    HW3 8471   3.317   3.862   3.411
 2110SOL    MW4 8472   3.392   3.822   3.395
 2111SOL     OW 8473   3.179   3.958   3.463
 2111SOL    HW2 8474   3.172   3.965   3.558
 2111SOL    HW3 8475   3.175   4.049   3.432
 2111SOL    MW4 8476   3.177   3.971   3.471
 2112SOL     OW 8477   3.174   4.240   3.367
 2112SOL    HW2 8478   3.247   4.284   3.409
 2112SOL    HW3 8479   3.096   4.280   3.404
 2112SOL    MW4 8480   3.173   4.251   3.377
 2113SOL     OW 8481   3.384   4.389   3.486
 2113SOL    HW2 8482   3.371   4.386   3.580
 2113SOL    HW3 8483   3.382   4.483   3.464
 2113SOL    MW4 8484   3.382   4.401   3.495
 2114SOL     OW 8485   3.819   4.620   3.369
 2114SOL    HW2 8486   3.760   4.677   3.418
 2114SOL    HW3 8487   3.800   4.639   3.277
 2114SOL    MW4 8488   3.808   4.630   3.363
 2115SOL     OW 8489   3.633   0.105   3.506
 2115SOL    HW2 8490   3.619   0.195   3.476
 2115SOL    HW3 8491   3.553   0.059   3.480
 2115SOL    MW4 8492   3.620   0.111   3.499
 2116SOL     OW 8493   3.604   0.361   3.383
 2116SOL    HW2 8494   3.676   0.401   3.432
 2116SOL    HW3 8495   3.527   0.411   3.408
 2116SOL    MW4 8496   3.604   0.373   3.393
 2117SOL     OW 8497   3.824   0.494   3.483
 2117SOL    HW2 8498   3.825   0.500   3.579
 2117SOL    HW3 8499   3.902   0.443   3.461
 2117SOL    MW4 8500   3.834   0.488   3.493
 2118SOL     OW 8501   3.832   0.759   3.387
 2118SOL    HW2 8502   3.891   0.807   3.445
 2118SOL    HW3 8503   3.836   0.669   3.419
 2118SOL    MW4 8504   3.840   0.753   3.399
 2119SOL     OW 8505   3.571   0.823   3.470
 2119SOL    HW2 8506   3.571   0.816   3.566
 2119SOL    HW3 8507   3.664   0.819   3.446
 2119SOL    MW4 8508   3.584   0.822   3.480
 2120SOL     OW 8509   3.603   1.097   3.404
 2120SOL    HW2 8510   3.573   1.008   3.420
 2120SOL    HW3 8511   3.630   1.097   3.312
 2120SOL    MW4 8512   3.603   1.085   3.394
 2121SOL     OW 8513   3.789   1.276   3.502
 2121SOL    HW2 8514   3.801   1.267   3.597
 2121SOL    HW3 8515   3.719   1.215   3.481
 2121SOL    MW4 8516   3.781   1.267   3.512
 2122SOL     OW 8517   3.802   1.533   3.384
 2122SOL    HW2 8518   3.877   1.574   3.427
 2122SOL    HW3 8519   3.793   1.448   3.427
 2122SOL    MW4 8520   3.810   1.527   3.395
 2123SOL     OW 8521   3.546   1.684   3.486
 2123SOL    HW2 8522   3.542   1.769   3.442
 2123SOL    HW3 8523   3.626   1.643   3.453
 2123SOL    MW4 8524   3.556   1.690   3.476
 2124SOL     OW 8525   3.554   1.927   3.348
 2124SOL    HW2 8526   3.632   1.963   3.392
 2124SOL    HW3 8527   3.480   1.966   3.394
 2124SOL    MW4 8528   3.555   1.937   3.360
 2125SOL     OW 8529   3.773   2.029   3.506
 2125SOL    HW2 8530   3.745   2.025   3.597
 2125SOL    HW3 8531   3.862   1.994   3.506
 2125SOL    MW4 8532   3.781   2.024   3.518
 2126SOL     OW 8533   3.791   2.288   3.419
 2126SOL    HW2 8534   3.881   2.317   3.437
 2126SOL    HW3 8535   3.790   2.195   3.443
 2126SOL    MW4 8536   3.803   2.279   3.424
 2127SOL     OW 8537   3.569   2.373   3.533
 2127SOL    HW2 8538   3.574   2.462   3.498
 2127SOL    HW3 8539   3.648   2.330   3.501
 2127SOL    MW4 8540   3.580   2.379   3.524
 2128SOL     OW 8541   3.562   2.634   3.442
 2128SOL    HW2 8542   3.642   2.687   3.448
 2128SOL    HW3 8543   3.537   2.639   3.350
 2128SOL    MW4 8544   3.569   2.642   3.430
 2129SOL     OW 8545   3.786   2.799   3.448
 2129SOL    HW2 8546   3.800   2.799   3.543
 2129SOL    HW3 8547   3.792   2.891   3.423
 2129SOL    MW4 8548   3.789   2.811   3.457
 2130SOL     OW 8549   3.874   3.062   3.383
 2130SOL    HW2 8550   3.949   3.104   3.426
 2130SOL    HW3 8551   3.901   3.053   3.291
 2130SOL    MW4 8552   3.887   3.066   3.376
 2131SOL     OW 8553   3.631   3.199   3.454
 2131SOL    HW2 8554   3.635   3.289   3.422
 2131SOL    HW3 8555   3.717   3.163   3.433
 2131SOL    MW4 8556   3.643   3.206   3.447
 2132SOL     OW 8557   3.657   3.468   3.386
 2132SOL    HW2 8558   3.573   3.494   3.424
 2132SOL    HW3 8559   3.645   3.480   3.292
 2132SOL    MW4 8560   3.644   3.473   3.379
 2133SOL     OW 8561   3.856   3.573   3.525
 2133SOL    HW2 8562   3.843   3.563   3.619
 2133SOL    HW3 8563   3.780   3.530   3.485
 2133SOL    MW4 8564   3.844   3.566   3.532
 2134SOL     OW 8565   3.846   3.835   3.417
 2134SOL    HW2 8566   3.762   3.865   3.450
 2134SOL    HW3 8567   3.854   3.745   3.448
 2134SOL    MW4 8568   3.836   3.827   3.425
 2135SOL     OW 8569   3.614   3.959   3.470
 2135SOL    HW2 8570   3.579   3.974   3.557
 2135SOL    HW3 8571   3.617   4.046   3.430
 2135SOL    MW4 8572   3.610   3.973   3.476
 2136SOL     OW 8573   3.633   4.223   3.373
 2136SOL    HW2 8574   3.562   4.279   3.404
 2136SOL    HW3 8575   3.639   4.241   3.279
 2136SOL    MW4 8576   3.625   4.233   3.365
 2137SOL     OW 8577   3.845   4.356   3.485
 2137SOL    HW2 8578   3.772   4.317   3.436
 2137SOL    HW3 8579   3.845   4.447   3.457
 2137SOL    MW4 8580   3.835   4.362   3.475
 2138SOL     OW 8581   4.242   4.657   3.397
 2138SOL    HW2 8582   4.260   4.572   3.437
 2138SOL    HW3 8583   4.319   4.710   3.416
 2138SOL    MW4 8584   4.254   4.653   3.405
 2139SOL     OW 8585   4.012   0.112   3.452
 2139SOL    HW2 8586   4.089   0.078   3.407
 2139SOL    HW3 8587   3.941   0.054   3.425
 2139SOL    MW4 8588   4.013   0.100   3.442
 2140SOL     OW 8589   4.066   0.359   3.392
 2140SOL    HW2 8590   4.049   0.273   3.430
 2140SOL    HW3 8591   4.055   0.346   3.298
 2140SOL    MW4 8592   4.062   0.346   3.385
 2141SOL     OW 8593   4.262   0.518   3.474
 2141SOL    HW2 8594   4.251   0.599   3.423
 2141SOL    HW3 8595   4.194   0.460   3.441
 2141SOL    MW4 8596   4.252   0.521   3.463
 2142SOL     OW 8597   4.240   0.766   3.352
 2142SOL    HW2 8598   4.322   0.803   3.382
 2142SOL    HW3 8599   4.244   0.773   3.257
 2142SOL    MW4 8600   4.251   0.772   3.343
 2143SOL     OW 8601   4.029   0.900   3.499
 2143SOL    HW2 8602   4.020   0.979   3.446
 2143SOL    HW3 8603   4.110   0.860   3.469
 2143SOL    MW4 8604   4.039   0.905   3.488
 2144SOL     OW 8605   4.014   1.134   3.369
 2144SOL    HW2 8606   4.094   1.159   3.415
 2144SOL    HW3 8607   3.943   1.173   3.420
 2144SOL    MW4 8608   4.015   1.142   3.382
 2145SOL     OW 8609   4.233   1.234   3.501
 2145SOL    HW2 8610   4.226   1.324   3.470
 2145SOL    HW3 8611   4.305   1.197   3.451
 2145SOL    MW4 8612   4.241   1.241   3.491
 2146SOL     OW 8613   4.237   1.506   3.387
 2146SOL    HW2 8614   4.170   1.569   3.414
 2146SOL    HW3 8615   4.258   1.529   3.297
 2146SOL    MW4 8616   4.231   1.517   3.379
 2147SOL     OW 8617   4.021   1.654   3.489
 2147SOL    HW2 8618   4.033   1.661   3.584
 2147SOL    HW3 8619   4.032   1.744   3.457
 2147SOL    MW4 8620   4.024   1.667   3.497
 2148SOL     OW 8621   4.018   1.923   3.417
 2148SOL    HW2 8622   4.100   1.972   3.423
 2148SOL    HW3 8623   4.007   1.905   3.324
 2148SOL    MW4 8624   4.028   1.927   3.406
 2149SOL     OW 8625   4.269   2.027   3.464
 2149SOL    HW2 8626   4.285   2.121   3.457
 2149SOL    HW3 8627   4.347   1.987   3.426
 2149SOL    MW4 8628   4.282   2.034   3.458
 2150SOL     OW 8629   4.294   2.299   3.376
 2150SOL    HW2 8630   4.207   2.336   3.392
 2150SOL    HW3 8631   4.303   2.299   3.280
 2150SOL    MW4 8632   4.284   2.304   3.365
 2151SOL     OW 8633   4.046   2.385   3.477
 2151SOL    HW2 8634   4.036   2.398   3.572
 2151SOL    HW3 8635   4.031   2.472   3.440
 2151SOL    MW4 8636   4.043   2.399   3.485
 2152SOL     OW 8637   4.022   2.653   3.373
 2152SOL    HW2 8638   4.088   2.702   3.421
 2152SOL    HW3 8639   3.941   2.702   3.386
 2152SOL    MW4 8640   4.020   2.666   3.381
 2153SOL     OW 8641   4.226   2.824   3.454
 2153SOL    HW2 8642   4.232   2.821   3.549
 2153SOL    HW3 8643   4.312   2.791   3.424
 2153SOL    MW4 8644   4.238   2.819   3.462
 2154SOL     OW 8645   4.266   3.094   3.389
 2154SOL    HW2 8646   4.263   3.001   3.412
 2154SOL    HW3 8647   4.261   3.096   3.294
 2154SOL    MW4 8648   4.265   3.082   3.380
 2155SOL     OW 8649   4.051   3.223   3.528
 2155SOL    HW2 8650   4.046   3.312   3.492
 2155SOL    HW3 8651   4.123   3.182   3.482
 2155SOL    MW4 8652   4.060   3.230   3.517
 2156SOL     OW 8653   4.073   3.484   3.387
 2156SOL    HW2 8654   4.140   3.524   3.441
 2156SOL    HW3 8655   3.990   3.518   3.420
 2156SOL    MW4 8656   4.071   3.494   3.398
 2157SOL     OW 8657   4.274   3.594   3.518
 2157SOL    HW2 8658   4.253   3.613   3.610
 2157SOL    HW3 8659   4.297   3.679   3.481
 2157SOL    MW4 8660   4.274   3.608   3.525
 2158SOL     OW 8661   4.289   3.836   3.383
 2158SOL    HW2 8662   4.372   3.880   3.398
 2158SOL    HW3 8663   4.273   3.845   3.289
 2158SOL    MW4 8664   4.298   3.843   3.372
 2159SOL     OW 8665   4.082   3.966   3.495
 2159SOL    HW2 8666   4.155   3.925   3.449
 2159SOL    HW3 8667   4.004   3.924   3.458
 2159SOL    MW4 8668   4.081   3.955   3.484
 2160SOL     OW 8669   4.086   4.230   3.383
 2160SOL    HW2 8670   4.085   4.153   3.439
 2160SOL    HW3 8671   4.007   4.278   3.406
 2160SOL    MW4 8672   4.076   4.226   3.393
 2161SOL     OW 8673   4.283   4.389   3.458
 2161SOL    HW2 8674   4.276   4.403   3.553
 2161SOL    HW3 8675   4.211   4.331   3.437
 2161SOL    MW4 8676   4.273   4.383   3.468
 2162SOL     OW 8677   0.212   4.635   3.859
 2162SOL    HW2 8678   0.206   4.673   3.947
 2162SOL    HW3 8679   0.130   4.662   3.816
 2162SOL    MW4 8680   0.200   4.644   3.865
 2163SOL     OW 8681   4.456   0.075   3.758
 2163SOL    HW2 8682   4.459   0.156   3.809
 2163SOL    HW3 8683   4.465   0.104   3.667
 2163SOL    MW4 8684   4.458   0.089   3.753
 2164SOL     OW 8685   4.450   0.335   3.861
 2164SOL    HW2 8686   4.375   0.391   3.840
 2164SOL    HW3 8687   4.527   0.389   3.843
 2164SOL    MW4 8688   4.450   0.349   3.856
 2165SOL     OW 8689   0.186   0.470   3.780
 2165SOL    HW2 8690   0.193   0.559   3.814
 2165SOL    HW3 8691   0.190   0.481   3.685
 2165SOL    MW4 8692   0.188   0.483   3.772
 2166SOL     OW 8693   0.200   0.732   3.864
 2166SOL    HW2 8694   0.188   0.757   3.956
 2166SOL    HW3 8695   0.131   0.779   3.817
 2166SOL    MW4 8696   0.190   0.741   3.870
 2167SOL     OW 8697   0.003   0.882   3.732
 2167SOL    HW2 8698  -0.073   0.826   3.748
 2167SOL    HW3 8699  -0.016   0.961   3.783
 2167SOL    MW4 8700  -0.010   0.885   3.741
 2168SOL     OW 8701   4.469   1.130   3.886
 2168SOL    HW2 8702   4.397   1.181   3.849
 2168SOL    HW3 8703   4.547   1.158   3.838
 2168SOL    MW4 8704   4.470   1.140   3.875
 2169SOL     OW 8705   0.205   1.233   3.750
 2169SOL    HW2 8706   0.202   1.323   3.782
 2169SOL    HW3 8707   0.231   1.242   3.658
 2169SOL    MW4 8708   0.208   1.246   3.742
 2170SOL     OW 8709   0.224   1.507   3.844
 2170SOL    HW2 8710   0.229   1.524   3.938
 2170SOL    HW3 8711   0.151   1.561   3.813
 2170SOL    MW4 8712   0.215   1.517   3.852
 2171SOL     OW 8713   4.487   1.654   3.761
 2171SOL    HW2 8714   4.478   1.748   3.778
 2171SOL    HW3 8715   4.482   1.646   3.666
 2171SOL    MW4 8716   4.485   1.665   3.751
 2172SOL     OW 8717   4.456   1.922   3.828
 2172SOL    HW2 8718   4.458   1.922   3.924
 2172SOL    HW3 8719   4.374   1.966   3.806
 2172SOL    MW4 8720   4.446   1.928   3.838
 2173SOL     OW 8721   0.214   2.013   3.727
 2173SOL    HW2 8722   0.211   2.104   3.758
 2173SOL    HW3 8723   0.134   1.973   3.761
 2173SOL    MW4 8724   0.203   2.020   3.736
 2174SOL     OW 8725   0.184   2.279   3.826
 2174SOL    HW2 8726   0.206   2.301   3.917
 2174SOL    HW3 8727   0.113   2.340   3.803
 2174SOL    MW4 8728   0.177   2.290   3.835
 2175SOL     OW 8729   4.454   2.449   3.721
 2175SOL    HW2 8730   4.377   2.398   3.744
 2175SOL    HW3 8731   4.441   2.534   3.764
 2175SOL    MW4 8732   4.442   2.454   3.730
 2176SOL     OW 8733   4.455   2.686   3.865
 2176SOL    HW2 8734   4.461   2.683   3.960
 2176SOL    HW3 8735   4.537   2.728   3.837
 2176SOL    MW4 8736   4.466   2.691   3.874
 2177SOL     OW 8737   0.203   2.806   3.776
 2177SOL    HW2 8738   0.274   2.743   3.787
 2177SOL    HW3 8739   0.197   2.819   3.681
 2177SOL    MW4 8740   0.212   2.800   3.765
 2178SOL     OW 8741   0.203   3.063   3.879
 2178SOL    HW2 8742   0.197   3.058   3.974
 2178SOL    HW3 8743   0.198   2.972   3.850
 2178SOL    MW4 8744   0.202   3.051   3.887
 2179SOL     OW 8745   4.474   3.230   3.756
 2179SOL    HW2 8746   4.538   3.170   3.793
 2179SOL    HW3 8747   4.488   3.226   3.661
 2179SOL    MW4 8748   4.484   3.222   3.748
 2180SOL     OW 8749   4.485   3.487   3.855
 2180SOL    HW2 8750   4.560   3.528   3.812
 2180SOL    HW3 8751   4.483   3.398   3.820
 2180SOL    MW4 8752   4.494   3.481   3.845
 2181SOL     OW 8753   0.216   3.621   3.754
 2181SOL    HW2 8754   0.294   3.577   3.789
 2181SOL    HW3 8755   0.218   3.708   3.793
 2181SOL    MW4 8756   0.227   3.626   3.764
 2182SOL     OW 8757   0.223   3.891   3.826
 2182SOL    HW2 8758   0.227   3.906   3.920
 2182SOL    HW3 8759   0.295   3.943   3.791
 2182SOL    MW4 8760   0.233   3.900   3.834
 2183SOL     OW 8761   4.487   4.011   3.713
 2183SOL    HW2 8762   4.420   3.967   3.765
 2183SOL    HW3 8763   4.567   3.959   3.726
 2183SOL    MW4 8764   4.489   3.998   3.721
 2184SOL     OW 8765   0.011   4.279   3.816
 2184SOL    HW2 8766   0.098   4.308   3.787
 2184SOL    HW3 8767   0.006   4.188   3.788
 2184SOL    MW4 8768   0.022   4.271   3.809
 2185SOL     OW 8769   0.251   4.387   3.755
 2185SOL    HW2 8770   0.316   4.346   3.813
 2185SOL    HW3 8771   0.232   4.471   3.797
 2185SOL    MW4 8772   0.257   4.393   3.768
 2186SOL     OW 8773   0.661   0.013   3.827
 2186SOL    HW2 8774   0.662  -0.078   3.797
 2186SOL    HW3 8775   0.580   0.050   3.789
 2186SOL    MW4 8776   0.650   0.006   3.818
 2187SOL     OW 8777   0.427   0.102   3.753
 2187SOL    HW2 8778   0.416   0.192   3.784
 2187SOL    HW3 8779   0.351   0.055   3.788
 2187SOL    MW4 8780   0.415   0.108   3.761
 2188SOL     OW 8781   0.431   0.368   3.859
 2188SOL    HW2 8782   0.487   0.439   3.828
 2188SOL    HW3 8783   0.342   0.400   3.842
 2188SOL    MW4 8784   0.426   0.382   3.852
 2189SOL     OW 8785   0.660   0.532   3.763
 2189SOL    HW2 8786   0.739   0.494   3.801
 2189SOL    HW3 8787   0.661   0.624   3.790
 2189SOL    MW4 8788   0.670   0.539   3.772
 2190SOL     OW 8789   0.665   0.772   3.864
 2190SOL    HW2 8790   0.742   0.824   3.841
 2190SOL    HW3 8791   0.592   0.818   3.822
 2190SOL    MW4 8792   0.666   0.785   3.855
 2191SOL     OW 8793   0.441   0.892   3.746
 2191SOL    HW2 8794   0.440   0.980   3.784
 2191SOL    HW3 8795   0.363   0.850   3.783
 2191SOL    MW4 8796   0.430   0.898   3.756
 2192SOL     OW 8797   0.430   1.128   3.872
 2192SOL    HW2 8798   0.510   1.169   3.839
 2192SOL    HW3 8799   0.359   1.175   3.829
 2192SOL    MW4 8800   0.431   1.139   3.862
 2193SOL     OW 8801   0.676   1.233   3.778
 2193SOL    HW2 8802   0.753   1.209   3.829
 2193SOL    HW3 8803   0.706   1.238   3.688
 2193SOL    MW4 8804   0.690   1.230   3.773
 2194SOL     OW 8805   0.652   1.505   3.867
 2194SOL    HW2 8806   0.733   1.553   3.851
 2194SOL    HW3 8807   0.662   1.423   3.819
 2194SOL    MW4 8808   0.664   1.501   3.859
 2195SOL     OW 8809   0.445   1.638   3.714
 2195SOL    HW2 8810   0.524   1.593   3.742
 2195SOL    HW3 8811   0.376   1.606   3.772
 2195SOL    MW4 8812   0.446   1.628   3.725
 2196SOL     OW 8813   0.437   1.888   3.846
 2196SOL    HW2 8814   0.444   1.800   3.809
 2196SOL    HW3 8815   0.357   1.923   3.808
 2196SOL    MW4 8816   0.428   1.881   3.836
 2197SOL     OW 8817   0.674   2.064   3.766
 2197SOL    HW2 8818   0.676   2.147   3.814
 2197SOL    HW3 8819   0.606   2.013   3.809
 2197SOL    MW4 8820   0.666   2.068   3.778
 2198SOL     OW 8821   0.635   2.302   3.868
 2198SOL    HW2 8822   0.711   2.358   3.851
 2198SOL    HW3 8823   0.563   2.345   3.823
 2198SOL    MW4 8824   0.636   2.315   3.860
 2199SOL     OW 8825   0.413   2.379   3.735
 2199SOL    HW2 8826   0.330   2.336   3.757
 2199SOL    HW3 8827   0.409   2.391   3.640
 2199SOL    MW4 8828   0.401   2.375   3.725
 2200SOL     OW 8829   0.409   2.640   3.809
 2200SOL    HW2 8830   0.501   2.663   3.795
 2200SOL    HW3 8831   0.404   2.547   3.785
 2200SOL    MW4 8832   0.420   2.631   3.804
 2201SOL     OW 8833   0.634   2.760   3.746
 2201SOL    HW2 8834   0.725   2.756   3.777
 2201SOL    HW3 8835   0.641   2.781   3.653
 2201SOL    MW4 8836   0.647   2.762   3.738
 2202SOL     OW 8837   0.656   3.053   3.874
 2202SOL    HW2 8838   0.654   3.034   3.967
 2202SOL    HW3 8839   0.610   2.979   3.833
 2202SOL    MW4 8840   0.649   3.041   3.881
 2203SOL     OW 8841   0.423   3.233   3.798
 2203SOL    HW2 8842   0.496   3.180   3.830
 2203SOL    HW3 8843   0.345   3.180   3.817
 2203SOL    MW4 8844   0.423   3.219   3.805
 2204SOL     OW 8845   0.434   3.503   3.887
 2204SOL    HW2 8846   0.513   3.544   3.852
 2204SOL    HW3 8847   0.438   3.413   3.854
 2204SOL    MW4 8848   0.445   3.497   3.878
 2205SOL     OW 8849   0.648   3.626   3.749
 2205SOL    HW2 8850   0.638   3.718   3.773
 2205SOL    HW3 8851   0.662   3.628   3.654
 2205SOL    MW4 8852   0.649   3.639   3.740
 2206SOL     OW 8853   0.612   3.888   3.864
 2206SOL    HW2 8854   0.606   3.908   3.958
 2206SOL    HW3 8855   0.694   3.927   3.836
 2206SOL    MW4 8856   0.622   3.896   3.873
 2207SOL     OW 8857   0.427   4.029   3.722
 2207SOL    HW2 8858   0.494   3.984   3.775
 2207SOL    HW3 8859   0.465   4.035   3.635
 2207SOL    MW4 8860   0.441   4.024   3.718
 2208SOL     OW 8861   0.487   4.251   3.888
 2208SOL    HW2 8862   0.560   4.295   3.844
 2208SOL    HW3 8863   0.460   4.182   3.828
 2208SOL    MW4 8864   0.493   4.248   3.874
 2209SOL     OW 8865   0.667   4.404   3.747
 2209SOL    HW2 8866   0.745   4.359   3.777
 2209SOL    HW3 8867   0.665   4.389   3.652
 2209SOL    MW4 8868   0.677   4.396   3.738
 2210SOL     OW 8869   1.151   4.664   3.830
 2210SOL    HW2 8870   1.230   4.683   3.779
 2210SOL    HW3 8871   1.129   4.574   3.809
 2210SOL    MW4 8872   1.159   4.655   3.821
 2211SOL     OW 8873   0.903   0.147   3.748
 2211SOL    HW2 8874   0.981   0.101   3.778
 2211SOL    HW3 8875   0.830   0.094   3.779
 2211SOL    MW4 8876   0.904   0.134   3.756
 2212SOL     OW 8877   0.897   0.408   3.849
 2212SOL    HW2 8878   0.905   0.391   3.942
 2212SOL    HW3 8879   0.869   0.324   3.811
 2212SOL    MW4 8880   0.894   0.395   3.856
 2213SOL     OW 8881   1.110   0.526   3.751
 2213SOL    HW2 8882   1.181   0.462   3.755
 2213SOL    HW3 8883   1.039   0.486   3.801
 2213SOL    MW4 8884   1.110   0.512   3.758
 2214SOL     OW 8885   1.123   0.770   3.872
 2214SOL    HW2 8886   1.121   0.748   3.965
 2214SOL    HW3 8887   1.118   0.686   3.827
 2214SOL    MW4 8888   1.122   0.756   3.878
 2215SOL     OW 8889   0.901   0.907   3.786
 2215SOL    HW2 8890   0.976   0.856   3.818
 2215SOL    HW3 8891   0.905   0.896   3.691
 2215SOL    MW4 8892   0.912   0.899   3.778
 2216SOL     OW 8893   0.932   1.158   3.892
 2216SOL    HW2 8894   0.929   1.146   3.987
 2216SOL    HW3 8895   0.915   1.071   3.856
 2216SOL    MW4 8896   0.930   1.145   3.900
 2217SOL     OW 8897   1.153   1.280   3.740
 2217SOL    HW2 8898   1.137   1.368   3.773
 2217SOL    HW3 8899   1.082   1.227   3.777
 2217SOL    MW4 8900   1.142   1.284   3.749
 2218SOL     OW 8901   1.104   1.541   3.854
 2218SOL    HW2 8902   1.099   1.537   3.949
 2218SOL    HW3 8903   1.190   1.578   3.836
 2218SOL    MW4 8904   1.114   1.545   3.864
 2219SOL     OW 8905   0.879   1.652   3.762
 2219SOL    HW2 8906   0.966   1.620   3.787
 2219SOL    HW3 8907   0.875   1.640   3.667
 2219SOL    MW4 8908   0.890   1.646   3.753
 2220SOL     OW 8909   0.900   1.919   3.851
 2220SOL    HW2 8910   0.886   1.838   3.802
 2220SOL    HW3 8911   0.828   1.977   3.823
 2220SOL    MW4 8912   0.888   1.916   3.841
 2221SOL     OW 8913   1.132   2.051   3.800
 2221SOL    HW2 8914   1.049   2.006   3.814
 2221SOL    HW3 8915   1.134   2.069   3.706
 2221SOL    MW4 8916   1.121   2.048   3.789
 2222SOL     OW 8917   1.123   2.310   3.894
 2222SOL    HW2 8918   1.124   2.317   3.990
 2222SOL    HW3 8919   1.121   2.215   3.878
 2222SOL    MW4 8920   1.123   2.298   3.905
 2223SOL     OW 8921   0.859   2.426   3.776
 2223SOL    HW2 8922   0.863   2.518   3.800
 2223SOL    HW3 8923   0.942   2.389   3.807
 2223SOL    MW4 8924   0.871   2.433   3.783
 2224SOL     OW 8925   0.890   2.706   3.831
 2224SOL    HW2 8926   0.905   2.701   3.926
 2224SOL    HW3 8927   0.961   2.762   3.799
 2224SOL    MW4 8928   0.901   2.713   3.839
 2225SOL     OW 8929   1.118   2.875   3.747
 2225SOL    HW2 8930   1.203   2.847   3.780
 2225SOL    HW3 8931   1.101   2.958   3.791
 2225SOL    MW4 8932   1.127   2.882   3.757
 2226SOL     OW 8933   1.078   3.103   3.897
 2226SOL    HW2 8934   1.160   3.142   3.865
 2226SOL    HW3 8935   1.010   3.161   3.863
 2226SOL    MW4 8936   1.080   3.116   3.888
 2227SOL     OW 8937   0.866   3.219   3.798
 2227SOL    HW2 8938   0.793   3.157   3.803
 2227SOL    HW3 8939   0.889   3.222   3.705
 2227SOL    MW4 8940   0.859   3.211   3.786
 2228SOL     OW 8941   0.869   3.498   3.872
 2228SOL    HW2 8942   0.847   3.411   3.839
 2228SOL    HW3 8943   0.801   3.555   3.836
 2228SOL    MW4 8944   0.857   3.494   3.863
 2229SOL     OW 8945   1.122   3.604   3.776
 2229SOL    HW2 8946   1.127   3.698   3.794
 2229SOL    HW3 8947   1.037   3.578   3.811
 2229SOL    MW4 8948   1.111   3.613   3.783
 2230SOL     OW 8949   1.081   3.879   3.832
 2230SOL    HW2 8950   1.074   3.886   3.928
 2230SOL    HW3 8951   1.170   3.907   3.812
 2230SOL    MW4 8952   1.092   3.883   3.842
 2231SOL     OW 8953   0.833   4.006   3.788
 2231SOL    HW2 8954   0.922   3.974   3.802
 2231SOL    HW3 8955   0.830   4.029   3.695
 2231SOL    MW4 8956   0.845   4.005   3.778
 2232SOL     OW 8957   0.865   4.284   3.897
 2232SOL    HW2 8958   0.874   4.284   3.992
 2232SOL    HW3 8959   0.857   4.191   3.873
 2232SOL    MW4 8960   0.865   4.272   3.906
 2233SOL     OW 8961   1.094   4.405   3.786
 2233SOL    HW2 8962   1.019   4.356   3.821
 2233SOL    HW3 8963   1.096   4.380   3.693
 2233SOL    MW4 8964   1.084   4.395   3.778
 2234SOL     OW 8965   1.558   4.639   3.891
 2234SOL    HW2 8966   1.539   4.642   3.985
 2234SOL    HW3 8967   1.566   4.545   3.871
 2234SOL    MW4 8968   1.557   4.627   3.901
 2235SOL     OW 8969   1.399   0.103   3.708
 2235SOL    HW2 8970   1.377   0.189   3.743
 2235SOL    HW3 8971   1.441   0.057   3.781
 2235SOL    MW4 8972   1.401   0.108   3.722
 2236SOL     OW 8973   1.324   0.346   3.804
 2236SOL    HW2 8974   1.328   0.338   3.900
 2236SOL    HW3 8975   1.391   0.411   3.783
 2236SOL    MW4 8976   1.334   0.353   3.814
 2237SOL     OW 8977   1.572   0.484   3.773
 2237SOL    HW2 8978   1.654   0.439   3.794
 2237SOL    HW3 8979   1.584   0.573   3.806
 2237SOL    MW4 8980   1.585   0.490   3.780
 2238SOL     OW 8981   1.604   0.751   3.909
 2238SOL    HW2 8982   1.675   0.805   3.874
 2238SOL    HW3 8983   1.524   0.788   3.871
 2238SOL    MW4 8984   1.603   0.763   3.899
 2239SOL     OW 8985   1.363   0.868   3.778
 2239SOL    HW2 8986   1.365   0.963   3.787
 2239SOL    HW3 8987   1.293   0.839   3.836
 2239SOL    MW4 8988   1.354   0.877   3.787
 2240SOL     OW 8989   1.387   1.140   3.828
 2240SOL    HW2 8990   1.460   1.201   3.817
 2240SOL    HW3 8991   1.313   1.182   3.785
 2240SOL    MW4 8992   1.387   1.153   3.821
 2241SOL     OW 8993   1.609   1.298   3.779
 2241SOL    HW2 8994   1.688   1.260   3.816
 2241SOL    HW3 8995   1.601   1.383   3.822
 2241SOL    MW4 8996   1.618   1.304   3.789
 2242SOL     OW 8997   1.575   1.552   3.910
 2242SOL    HW2 8998   1.576   1.543   4.005
 2242SOL    HW3 8999   1.650   1.609   3.891
 2242SOL    MW4 9000   1.585   1.558   3.920
 2243SOL     OW 9001   1.345   1.643   3.760
 2243SOL    HW2 9002   1.353   1.725   3.809
 2243SOL    HW3 9003   1.412   1.586   3.798
 2243SOL    MW4 9004   1.355   1.647   3.772
 2244SOL     OW 9005   1.343   1.889   3.882
 2244SOL    HW2 9006   1.363   1.885   3.975
 2244SOL    HW3 9007   1.275   1.957   3.875
 2244SOL    MW4 9008   1.336   1.898   3.893
 2245SOL     OW 9009   1.532   2.074   3.771
 2245SOL    HW2 9010   1.462   2.015   3.798
 2245SOL    HW3 9011   1.523   2.080   3.676
 2245SOL    MW4 9012   1.521   2.067   3.762
 2246SOL     OW 9013   1.580   2.337   3.890
 2246SOL    HW2 9014   1.661   2.364   3.847
 2246SOL    HW3 9015   1.552   2.259   3.842
 2246SOL    MW4 9016   1.587   2.330   3.878
 2247SOL     OW 9017   1.334   2.460   3.793
 2247SOL    HW2 9018   1.415   2.426   3.832
 2247SOL    HW3 9019   1.266   2.401   3.824
 2247SOL    MW4 9020   1.336   2.448   3.802
 2248SOL     OW 9021   1.346   2.738   3.850
 2248SOL    HW2 9022   1.334   2.727   3.945
 2248SOL    HW3 9023   1.341   2.650   3.814
 2248SOL    MW4 9024   1.344   2.725   3.858
 2249SOL     OW 9025   1.565   2.861   3.769
 2249SOL    HW2 9026   1.493   2.813   3.810
 2249SOL    HW3 9027   1.547   2.856   3.675
 2249SOL    MW4 9028   1.553   2.854   3.762
 2250SOL     OW 9029   1.545   3.113   3.888
 2250SOL    HW2 9030   1.524   3.113   3.981
 2250SOL    HW3 9031   1.549   3.020   3.865
 2250SOL    MW4 9032   1.543   3.100   3.897
 2251SOL     OW 9033   1.294   3.205   3.764
 2251SOL    HW2 9034   1.307   3.298   3.786
 2251SOL    HW3 9035   1.372   3.162   3.797
 2251SOL    MW4 9036   1.306   3.212   3.771
 2252SOL     OW 9037   1.350   3.473   3.830
 2252SOL    HW2 9038   1.418   3.530   3.793
 2252SOL    HW3 9039   1.269   3.524   3.822
 2252SOL    MW4 9040   1.348   3.487   3.824
 2253SOL     OW 9041   1.559   3.659   3.705
 2253SOL    HW2 9042   1.624   3.593   3.731
 2253SOL    HW3 9043   1.577   3.733   3.762
 2253SOL    MW4 9044   1.570   3.660   3.716
 2254SOL     OW 9045   1.615   3.907   3.835
 2254SOL    HW2 9046   1.602   3.897   3.929
 2254SOL    HW3 9047   1.541   3.961   3.807
 2254SOL    MW4 9048   1.603   3.913   3.844
 2255SOL     OW 9049   1.339   3.970   3.770
 2255SOL    HW2 9050   1.326   4.060   3.799
 2255SOL    HW3 9051   1.360   3.977   3.677
 2255SOL    MW4 9052   1.340   3.983   3.762
 2256SOL     OW 9053   1.332   4.262   3.844
 2256SOL    HW2 9054   1.416   4.307   3.845
 2256SOL    HW3 9055   1.268   4.330   3.823
 2256SOL    MW4 9056   1.335   4.277   3.841
 2257SOL     OW 9057   1.569   4.381   3.805
 2257SOL    HW2 9058   1.643   4.332   3.841
 2257SOL    HW3 9059   1.579   4.373   3.710
 2257SOL    MW4 9060   1.580   4.373   3.797
 2258SOL     OW 9061   1.997   4.620   3.904
 2258SOL    HW2 9062   2.069   4.674   3.872
 2258SOL    HW3 9063   1.998   4.543   3.848
 2258SOL    MW4 9064   2.006   4.617   3.893
 2259SOL     OW 9065   1.785   0.096   3.785
 2259SOL    HW2 9066   1.851   0.052   3.838
 2259SOL    HW3 9067   1.702   0.059   3.814
 2259SOL    MW4 9068   1.783   0.086   3.796
 2260SOL     OW 9069   1.842   0.371   3.833
 2260SOL    HW2 9070   1.849   0.374   3.928
 2260SOL    HW3 9071   1.837   0.277   3.812
 2260SOL    MW4 9072   1.842   0.359   3.842
 2261SOL     OW 9073   2.059   0.503   3.743
 2261SOL    HW2 9074   1.982   0.456   3.776
 2261SOL    HW3 9075   2.059   0.487   3.649
 2261SOL    MW4 9076   2.049   0.495   3.735
 2262SOL     OW 9077   2.038   0.748   3.838
 2262SOL    HW2 9078   2.036   0.752   3.934
 2262SOL    HW3 9079   2.051   0.656   3.818
 2262SOL    MW4 9080   2.040   0.737   3.848
 2263SOL     OW 9081   1.804   0.882   3.778
 2263SOL    HW2 9082   1.887   0.839   3.799
 2263SOL    HW3 9083   1.798   0.877   3.683
 2263SOL    MW4 9084   1.814   0.875   3.768
 2264SOL     OW 9085   1.820   1.135   3.883
 2264SOL    HW2 9086   1.832   1.141   3.978
 2264SOL    HW3 9087   1.834   1.043   3.862
 2264SOL    MW4 9088   1.823   1.124   3.893
 2265SOL     OW 9089   2.035   1.295   3.795
 2265SOL    HW2 9090   2.105   1.237   3.826
 2265SOL    HW3 9091   1.954   1.255   3.828
 2265SOL    MW4 9092   2.034   1.282   3.804
 2266SOL     OW 9093   2.004   1.556   3.874
 2266SOL    HW2 9094   1.941   1.608   3.825
 2266SOL    HW3 9095   2.003   1.471   3.832
 2266SOL    MW4 9096   1.996   1.552   3.862
 2267SOL     OW 9097   1.779   1.700   3.814
 2267SOL    HW2 9098   1.779   1.785   3.859
 2267SOL    HW3 9099   1.774   1.723   3.721
 2267SOL    MW4 9100   1.778   1.714   3.808
 2268SOL     OW 9101   1.786   1.957   3.882
 2268SOL    HW2 9102   1.787   1.996   3.970
 2268SOL    HW3 9103   1.706   1.991   3.842
 2268SOL    MW4 9104   1.775   1.967   3.889
 2269SOL     OW 9105   2.037   2.079   3.790
 2269SOL    HW2 9106   1.972   2.020   3.827
 2269SOL    HW3 9107   2.013   2.087   3.698
 2269SOL    MW4 9108   2.025   2.073   3.783
 2270SOL     OW 9109   2.013   2.341   3.888
 2270SOL    HW2 9110   1.943   2.385   3.841
 2270SOL    HW3 9111   2.014   2.252   3.853
 2270SOL    MW4 9112   2.004   2.335   3.877
 2271SOL     OW 9113   1.807   2.452   3.749
 2271SOL    HW2 9114   1.810   2.544   3.775
 2271SOL    HW3 9115   1.814   2.454   3.654
 2271SOL    MW4 9116   1.808   2.464   3.740
 2272SOL     OW 9117   1.783   2.713   3.864
 2272SOL    HW2 9118   1.810   2.748   3.948
 2272SOL    HW3 9119   1.697   2.752   3.847
 2272SOL    MW4 9120   1.775   2.723   3.873
 2273SOL     OW 9121   1.995   2.863   3.731
 2273SOL    HW2 9122   2.071   2.810   3.755
 2273SOL    HW3 9123   1.922   2.821   3.775
 2273SOL    MW4 9124   1.996   2.851   3.740
 2274SOL     OW 9125   2.003   3.139   3.800
 2274SOL    HW2 9126   2.007   3.048   3.772
 2274SOL    HW3 9127   2.074   3.183   3.754
 2274SOL    MW4 9128   2.013   3.133   3.791
 2275SOL     OW 9129   1.759   3.252   3.775
 2275SOL    HW2 9130   1.843   3.210   3.793
 2275SOL    HW3 9131   1.696   3.203   3.828
 2275SOL    MW4 9132   1.762   3.240   3.785
 2276SOL     OW 9133   1.780   3.516   3.833
 2276SOL    HW2 9134   1.863   3.559   3.811
 2276SOL    HW3 9135   1.788   3.428   3.796
 2276SOL    MW4 9136   1.792   3.510   3.825
 2277SOL     OW 9137   2.020   3.634   3.780
 2277SOL    HW2 9138   2.079   3.560   3.796
 2277SOL    HW3 9139   2.008   3.634   3.685
 2277SOL    MW4 9140   2.026   3.624   3.769
 2278SOL     OW 9141   2.088   3.884   3.878
 2278SOL    HW2 9142   2.148   3.919   3.812
 2278SOL    HW3 9143   2.077   3.792   3.854
 2278SOL    MW4 9144   2.095   3.877   3.866
 2279SOL     OW 9145   1.866   3.971   3.719
 2279SOL    HW2 9146   1.943   3.929   3.757
 2279SOL    HW3 9147   1.793   3.937   3.771
 2279SOL    MW4 9148   1.866   3.961   3.731
 2280SOL     OW 9149   1.799   4.211   3.862
 2280SOL    HW2 9150   1.856   4.284   3.837
 2280SOL    HW3 9151   1.824   4.140   3.803
 2280SOL    MW4 9152   1.810   4.211   3.851
 2281SOL     OW 9153   2.007   4.387   3.762
 2281SOL    HW2 9154   2.084   4.343   3.798
 2281SOL    HW3 9155   2.007   4.363   3.669
 2281SOL    MW4 9156   2.017   4.378   3.754
 2282SOL     OW 9157   2.469   4.662   3.930
 2282SOL    HW2 9158   2.445   4.677   4.021
 2282SOL    HW3 9159   2.549   4.713   3.917
 2282SOL    MW4 9160   2.477   4.671   3.940
 2283SOL     OW 9161   2.235   0.064   3.787
 2283SOL    HW2 9162   2.324   0.035   3.808
 2283SOL    HW3 9163   2.236   0.078   3.692
 2283SOL    MW4 9164   2.247   0.062   3.777
 2284SOL     OW 9165   2.237   0.319   3.886
 2284SOL    HW2 9166   2.246   0.229   3.855
 2284SOL    HW3 9167   2.175   0.359   3.825
 2284SOL    MW4 9168   2.230   0.312   3.874
 2285SOL     OW 9169   2.419   0.490   3.767
 2285SOL    HW2 9170   2.343   0.441   3.798
 2285SOL    HW3 9171   2.417   0.479   3.672
 2285SOL    MW4 9172   2.409   0.482   3.758
 2286SOL     OW 9173   2.463   0.725   3.893
 2286SOL    HW2 9174   2.407   0.788   3.848
 2286SOL    HW3 9175   2.445   0.641   3.850
 2286SOL    MW4 9176   2.453   0.722   3.882
 2287SOL     OW 9177   2.273   0.853   3.748
 2287SOL    HW2 9178   2.188   0.819   3.776
 2287SOL    HW3 9179   2.268   0.854   3.652
 2287SOL    MW4 9180   2.261   0.849   3.739
 2288SOL     OW 9181   2.249   1.125   3.875
 2288SOL    HW2 9182   2.273   1.128   3.968
 2288SOL    HW3 9183   2.245   1.032   3.854
 2288SOL    MW4 9184   2.252   1.113   3.884
 2289SOL     OW 9185   2.474   1.223   3.725
 2289SOL    HW2 9186   2.487   1.306   3.770
 2289SOL    HW3 9187   2.400   1.182   3.770
 2289SOL    MW4 9188   2.466   1.229   3.737
 2290SOL     OW 9189   2.486   1.479   3.820
 2290SOL    HW2 9190   2.564   1.531   3.800
 2290SOL    HW3 9191   2.413   1.534   3.793
 2290SOL    MW4 9192   2.487   1.493   3.814
 2291SOL     OW 9193   2.267   1.637   3.770
 2291SOL    HW2 9194   2.265   1.728   3.800
 2291SOL    HW3 9195   2.191   1.596   3.812
 2291SOL    MW4 9196   2.256   1.643   3.779
 2292SOL     OW 9197   2.265   1.929   3.830
 2292SOL    HW2 9198   2.275   1.929   3.925
 2292SOL    HW3 9199   2.189   1.985   3.813
 2292SOL    MW4 9200   2.256   1.936   3.840
 2293SOL     OW 9201   2.491   2.065   3.763
 2293SOL    HW2 9202   2.482   2.140   3.822
 2293SOL    HW3 9203   2.415   2.010   3.782
 2293SOL    MW4 9204   2.480   2.067   3.773
 2294SOL     OW 9205   2.446   2.299   3.926
 2294SOL    HW2 9206   2.535   2.327   3.904
 2294SOL    HW3 9207   2.390   2.345   3.863
 2294SOL    MW4 9208   2.451   2.309   3.915
 2295SOL     OW 9209   2.262   2.437   3.764
 2295SOL    HW2 9210   2.188   2.403   3.815
 2295SOL    HW3 9211   2.232   2.435   3.674
 2295SOL    MW4 9212   2.248   2.432   3.759
 2296SOL     OW 9213   2.209   2.702   3.842
 2296SOL    HW2 9214   2.193   2.721   3.934
 2296SOL    HW3 9215   2.228   2.608   3.839
 2296SOL    MW4 9216   2.209   2.692   3.854
 2297SOL     OW 9217   2.456   2.792   3.771
 2297SOL    HW2 9218   2.376   2.744   3.789
 2297SOL    HW3 9219   2.454   2.806   3.676
 2297SOL    MW4 9220   2.445   2.788   3.761
 2298SOL     OW 9221   2.453   3.056   3.850
 2298SOL    HW2 9222   2.430   3.049   3.942
 2298SOL    HW3 9223   2.448   2.966   3.817
 2298SOL    MW4 9224   2.449   3.043   3.858
 2299SOL     OW 9225   2.259   3.228   3.720
 2299SOL    HW2 9226   2.246   3.303   3.778
 2299SOL    HW3 9227   2.317   3.170   3.770
 2299SOL    MW4 9228   2.265   3.230   3.734
 2300SOL     OW 9229   2.215   3.452   3.882
 2300SOL    HW2 9230   2.208   3.457   3.977
 2300SOL    HW3 9231   2.291   3.506   3.861
 2300SOL    MW4 9232   2.224   3.460   3.892
 2301SOL     OW 9233   2.431   3.566   3.788
 2301SOL    HW2 9234   2.500   3.517   3.832
 2301SOL    HW3 9235   2.442   3.545   3.695
 2301SOL    MW4 9236   2.442   3.557   3.781
 2302SOL     OW 9237   2.472   3.838   3.837
 2302SOL    HW2 9238   2.551   3.877   3.800
 2302SOL    HW3 9239   2.485   3.744   3.828
 2302SOL    MW4 9240   2.484   3.831   3.831
 2303SOL     OW 9241   2.288   4.021   3.728
 2303SOL    HW2 9242   2.356   3.958   3.752
 2303SOL    HW3 9243   2.282   4.013   3.633
 2303SOL    MW4 9244   2.296   4.011   3.719
 2304SOL     OW 9245   2.249   4.270   3.864
 2304SOL    HW2 9246   2.216   4.246   3.950
 2304SOL    HW3 9247   2.287   4.190   3.829
 2304SOL    MW4 9248   2.250   4.256   3.871
 2305SOL     OW 9249   2.469   4.411   3.794
 2305SOL    HW2 9250   2.387   4.372   3.827
 2305SOL    HW3 9251   2.481   4.489   3.848
 2305SOL    MW4 9252   2.459   4.416   3.805
 2306SOL     OW 9253   2.934   4.596   3.864
 2306SOL    HW2 9254   2.954   4.579   3.956
 2306SOL    HW3 9255   3.011   4.642   3.831
 2306SOL    MW4 9256   2.947   4.600   3.872
 2307SOL     OW 9257   2.712   0.126   3.829
 2307SOL    HW2 9258   2.786   0.074   3.859
 2307SOL    HW3 9259   2.712   0.115   3.734
 2307SOL    MW4 9260   2.721   0.117   3.821
 2308SOL     OW 9261   2.664   0.399   3.870
 2308SOL    HW2 9262   2.662   0.305   3.850
 2308SOL    HW3 9263   2.582   0.433   3.836
 2308SOL    MW4 9264   2.653   0.391   3.863
 2309SOL     OW 9265   2.907   0.513   3.783
 2309SOL    HW2 9266   2.975   0.461   3.826
 2309SOL    HW3 9267   2.826   0.485   3.824
 2309SOL    MW4 9268   2.906   0.502   3.794
 2310SOL     OW 9269   2.913   0.787   3.864
 2310SOL    HW2 9270   2.970   0.838   3.805
 2310SOL    HW3 9271   2.922   0.697   3.834
 2310SOL    MW4 9272   2.922   0.782   3.852
 2311SOL     OW 9273   2.678   0.836   3.715
 2311SOL    HW2 9274   2.762   0.819   3.757
 2311SOL    HW3 9275   2.613   0.808   3.779
 2311SOL    MW4 9276   2.681   0.830   3.729
 2312SOL     OW 9277   2.689   1.084   3.838
 2312SOL    HW2 9278   2.703   0.996   3.803
 2312SOL    HW3 9279   2.616   1.118   3.788
 2312SOL    MW4 9280   2.681   1.076   3.827
 2313SOL     OW 9281   2.896   1.253   3.735
 2313SOL    HW2 9282   2.894   1.332   3.790
 2313SOL    HW3 9283   2.834   1.193   3.777
 2313SOL    MW4 9284   2.888   1.255   3.748
 2314SOL     OW 9285   2.898   1.491   3.865
 2314SOL    HW2 9286   2.892   1.521   3.956
 2314SOL    HW3 9287   2.976   1.535   3.831
 2314SOL    MW4 9288   2.908   1.501   3.873
 2315SOL     OW 9289   2.694   1.657   3.762
 2315SOL    HW2 9290   2.765   1.601   3.791
 2315SOL    HW3 9291   2.698   1.654   3.666
 2315SOL    MW4 9292   2.704   1.649   3.753
 2316SOL     OW 9293   2.688   1.903   3.878
 2316SOL    HW2 9294   2.696   1.813   3.848
 2316SOL    HW3 9295   2.610   1.937   3.833
 2316SOL    MW4 9296   2.679   1.896   3.868
 2317SOL     OW 9297   2.896   2.040   3.768
 2317SOL    HW2 9298   2.887   2.124   3.813
 2317SOL    HW3 9299   2.840   1.981   3.818
 2317SOL    MW4 9300   2.887   2.043   3.781
 2318SOL     OW 9301   2.900   2.277   3.916
 2318SOL    HW2 9302   2.918   2.292   4.008
 2318SOL    HW3 9303   2.972   2.321   3.870
 2318SOL    MW4 9304   2.912   2.285   3.922
 2319SOL     OW 9305   2.691   2.390   3.791
 2319SOL    HW2 9306   2.712   2.482   3.809
 2319SOL    HW3 9307   2.762   2.340   3.830
 2319SOL    MW4 9308   2.703   2.396   3.798
 2320SOL     OW 9309   2.704   2.665   3.851
 2320SOL    HW2 9310   2.709   2.705   3.937
 2320SOL    HW3 9311   2.620   2.695   3.816
 2320SOL    MW4 9312   2.693   2.674   3.858
 2321SOL     OW 9313   2.915   2.797   3.740
 2321SOL    HW2 9314   2.915   2.881   3.788
 2321SOL    HW3 9315   2.842   2.748   3.778
 2321SOL    MW4 9316   2.905   2.802   3.752
 2322SOL     OW 9317   2.903   3.060   3.838
 2322SOL    HW2 9318   2.980   3.102   3.800
 2322SOL    HW3 9319   2.834   3.126   3.831
 2322SOL    MW4 9320   2.904   3.074   3.832
 2323SOL     OW 9321   2.679   3.176   3.727
 2323SOL    HW2 9322   2.677   3.263   3.767
 2323SOL    HW3 9323   2.614   3.125   3.776
 2323SOL    MW4 9324   2.670   3.181   3.739
 2324SOL     OW 9325   2.655   3.435   3.881
 2324SOL    HW2 9326   2.651   3.436   3.977
 2324SOL    HW3 9327   2.725   3.496   3.859
 2324SOL    MW4 9328   2.664   3.443   3.891
 2325SOL     OW 9329   2.878   3.590   3.793
 2325SOL    HW2 9330   2.959   3.541   3.805
 2325SOL    HW3 9331   2.862   3.588   3.699
 2325SOL    MW4 9332   2.887   3.583   3.782
 2326SOL     OW 9333   2.913   3.872   3.846
 2326SOL    HW2 9334   2.925   3.872   3.941
 2326SOL    HW3 9335   2.929   3.782   3.820
 2326SOL    MW4 9336   2.917   3.860   3.855
 2327SOL     OW 9337   2.689   4.004   3.767
 2327SOL    HW2 9338   2.679   4.084   3.817
 2327SOL    HW3 9339   2.768   3.963   3.802
 2327SOL    MW4 9340   2.698   4.009   3.778
 2328SOL     OW 9341   2.694   4.252   3.880
 2328SOL    HW2 9342   2.765   4.293   3.830
 2328SOL    HW3 9343   2.617   4.307   3.862
 2328SOL    MW4 9344   2.693   4.265   3.871
 2329SOL     OW 9345   2.907   4.353   3.742
 2329SOL    HW2 9346   2.982   4.305   3.777
 2329SOL    HW3 9347   2.927   4.445   3.759
 2329SOL    MW4 9348   2.920   4.359   3.749
 2330SOL     OW 9349   3.371   4.619   3.861
 2330SOL    HW2 9350   3.377   4.629   3.955
 2330SOL    HW3 9351   3.446   4.667   3.826
 2330SOL    MW4 9352   3.382   4.627   3.869
 2331SOL     OW 9353   3.163   0.125   3.779
 2331SOL    HW2 9354   3.238   0.066   3.782
 2331SOL    HW3 9355   3.143   0.133   3.685
 2331SOL    MW4 9356   3.170   0.118   3.767
 2332SOL     OW 9357   3.110   0.363   3.896
 2332SOL    HW2 9358   3.131   0.370   3.989
 2332SOL    HW3 9359   3.126   0.272   3.874
 2332SOL    MW4 9360   3.115   0.352   3.905
 2333SOL     OW 9361   3.359   0.478   3.756
 2333SOL    HW2 9362   3.427   0.444   3.813
 2333SOL    HW3 9363   3.277   0.451   3.797
 2333SOL    MW4 9364   3.357   0.470   3.769
 2334SOL     OW 9365   3.327   0.771   3.826
 2334SOL    HW2 9366   3.326   0.781   3.922
 2334SOL    HW3 9367   3.346   0.678   3.813
 2334SOL    MW4 9368   3.330   0.760   3.837
 2335SOL     OW 9369   3.102   0.919   3.712
 2335SOL    HW2 9370   3.166   0.852   3.735
 2335SOL    HW3 9371   3.102   0.921   3.617
 2335SOL    MW4 9372   3.110   0.910   3.703
 2336SOL     OW 9373   3.147   1.161   3.831
 2336SOL    HW2 9374   3.143   1.071   3.801
 2336SOL    HW3 9375   3.073   1.204   3.788
 2336SOL    MW4 9376   3.136   1.155   3.821
 2337SOL     OW 9377   3.370   1.273   3.702
 2337SOL    HW2 9378   3.290   1.245   3.747
 2337SOL    HW3 9379   3.355   1.251   3.610
 2337SOL    MW4 9380   3.358   1.267   3.696
 2338SOL     OW 9381   3.366   1.537   3.841
 2338SOL    HW2 9382   3.279   1.573   3.820
 2338SOL    HW3 9383   3.366   1.450   3.800
 2338SOL    MW4 9384   3.354   1.530   3.833
 2339SOL     OW 9385   3.118   1.631   3.776
 2339SOL    HW2 9386   3.121   1.721   3.808
 2339SOL    HW3 9387   3.123   1.639   3.681
 2339SOL    MW4 9388   3.119   1.644   3.767
 2340SOL     OW 9389   3.137   1.931   3.873
 2340SOL    HW2 9390   3.136   1.933   3.969
 2340SOL    HW3 9391   3.058   1.978   3.847
 2340SOL    MW4 9392   3.126   1.937   3.882
 2341SOL     OW 9393   3.380   2.064   3.780
 2341SOL    HW2 9394   3.293   2.026   3.792
 2341SOL    HW3 9395   3.395   2.060   3.686
 2341SOL    MW4 9396   3.371   2.058   3.769
 2342SOL     OW 9397   3.326   2.299   3.890
 2342SOL    HW2 9398   3.255   2.330   3.834
 2342SOL    HW3 9399   3.350   2.214   3.853
 2342SOL    MW4 9400   3.319   2.292   3.878
 2343SOL     OW 9401   3.111   2.389   3.757
 2343SOL    HW2 9402   3.105   2.477   3.792
 2343SOL    HW3 9403   3.097   2.399   3.663
 2343SOL    MW4 9404   3.108   2.402   3.749
 2344SOL     OW 9405   3.090   2.636   3.868
 2344SOL    HW2 9406   3.104   2.663   3.958
 2344SOL    HW3 9407   3.025   2.698   3.835
 2344SOL    MW4 9408   3.083   2.648   3.875
 2345SOL     OW 9409   3.317   2.812   3.795
 2345SOL    HW2 9410   3.248   2.750   3.817
 2345SOL    HW3 9411   3.326   2.805   3.699
 2345SOL    MW4 9412   3.309   2.803   3.785
 2346SOL     OW 9413   3.344   3.089   3.878
 2346SOL    HW2 9414   3.416   3.112   3.818
 2346SOL    HW3 9415   3.330   2.995   3.864
 2346SOL    MW4 9416   3.352   3.080   3.868
 2347SOL     OW 9417   3.122   3.207   3.756
 2347SOL    HW2 9418   3.187   3.157   3.804
 2347SOL    HW3 9419   3.153   3.206   3.665
 2347SOL    MW4 9420   3.134   3.201   3.750
 2348SOL     OW 9421   3.130   3.468   3.871
 2348SOL    HW2 9422   3.208   3.510   3.837
 2348SOL    HW3 9423   3.143   3.375   3.852
 2348SOL    MW4 9424   3.142   3.461   3.864
 2349SOL     OW 9425   3.351   3.588   3.779
 2349SOL    HW2 9426   3.358   3.683   3.793
 2349SOL    HW3 9427   3.374   3.576   3.686
 2349SOL    MW4 9428   3.355   3.599   3.768
 2350SOL     OW 9429   3.367   3.842   3.887
 2350SOL    HW2 9430   3.442   3.879   3.840
 2350SOL    HW3 9431   3.291   3.888   3.850
 2350SOL    MW4 9432   3.367   3.853   3.876
 2351SOL     OW 9433   3.155   3.951   3.748
 2351SOL    HW2 9434   3.156   4.046   3.755
 2351SOL    HW3 9435   3.071   3.924   3.785
 2351SOL    MW4 9436   3.144   3.960   3.754
 2352SOL     OW 9437   3.144   4.209   3.855
 2352SOL    HW2 9438   3.156   4.208   3.950
 2352SOL    HW3 9439   3.219   4.259   3.822
 2352SOL    MW4 9440   3.156   4.216   3.863
 2353SOL     OW 9441   3.360   4.370   3.750
 2353SOL    HW2 9442   3.437   4.331   3.791
 2353SOL    HW3 9443   3.361   4.461   3.779
 2353SOL    MW4 9444   3.370   4.377   3.759
 2354SOL     OW 9445   3.785   4.615   3.884
 2354SOL    HW2 9446   3.854   4.652   3.828
 2354SOL    HW3 9447   3.791   4.521   3.870
 2354SOL    MW4 9448   3.795   4.608   3.875
 2355SOL     OW 9449   3.582   0.092   3.766
 2355SOL    HW2 9450   3.655   0.045   3.807
 2355SOL    HW3 9451   3.609   0.102   3.675
 2355SOL    MW4 9452   3.595   0.087   3.759
 2356SOL     OW 9453   3.567   0.366   3.908
 2356SOL    HW2 9454   3.644   0.409   3.870
 2356SOL    HW3 9455   3.564   0.280   3.865
 2356SOL    MW4 9456   3.577   0.360   3.897
 2357SOL     OW 9457   3.773   0.504   3.779
 2357SOL    HW2 9458   3.854   0.458   3.801
 2357SOL    HW3 9459   3.778   0.586   3.828
 2357SOL    MW4 9460   3.784   0.509   3.788
 2358SOL     OW 9461   3.794   0.749   3.884
 2358SOL    HW2 9462   3.875   0.786   3.849
 2358SOL    HW3 9463   3.724   0.799   3.842
 2358SOL    MW4 9464   3.795   0.761   3.874
 2359SOL     OW 9465   3.569   0.881   3.750
 2359SOL    HW2 9466   3.581   0.972   3.776
 2359SOL    HW3 9467   3.481   0.859   3.780
 2359SOL    MW4 9468   3.559   0.890   3.757
 2360SOL     OW 9469   3.584   1.136   3.868
 2360SOL    HW2 9470   3.659   1.196   3.859
 2360SOL    HW3 9471   3.511   1.184   3.830
 2360SOL    MW4 9472   3.584   1.150   3.862
 2361SOL     OW 9473   3.817   1.261   3.788
 2361SOL    HW2 9474   3.898   1.215   3.809
 2361SOL    HW3 9475   3.827   1.347   3.830
 2361SOL    MW4 9476   3.829   1.266   3.797
 2362SOL     OW 9477   3.832   1.525   3.909
 2362SOL    HW2 9478   3.799   1.533   3.998
 2362SOL    HW3 9479   3.760   1.557   3.854
 2362SOL    MW4 9480   3.818   1.530   3.913
 2363SOL     OW 9481   3.596   1.659   3.777
 2363SOL    HW2 9482   3.512   1.621   3.804
 2363SOL    HW3 9483   3.589   1.668   3.682
 2363SOL    MW4 9484   3.584   1.655   3.768
 2364SOL     OW 9485   3.564   1.900   3.916
 2364SOL    HW2 9486   3.581   1.816   3.875
 2364SOL    HW3 9487   3.486   1.933   3.871
 2364SOL    MW4 9488   3.556   1.894   3.905
 2365SOL     OW 9489   3.745   2.048   3.784
 2365SOL    HW2 9490   3.828   2.006   3.806
 2365SOL    HW3 9491   3.679   1.997   3.830
 2365SOL    MW4 9492   3.747   2.036   3.793
 2366SOL     OW 9493   3.779   2.305   3.899
 2366SOL    HW2 9494   3.704   2.356   3.867
 2366SOL    HW3 9495   3.759   2.215   3.874
 2366SOL    MW4 9496   3.766   2.300   3.891
 2367SOL     OW 9497   3.559   2.444   3.798
 2367SOL    HW2 9498   3.482   2.411   3.845
 2367SOL    HW3 9499   3.561   2.394   3.717
 2367SOL    MW4 9500   3.549   2.433   3.794
 2368SOL     OW 9501   3.562   2.701   3.882
 2368SOL    HW2 9502   3.569   2.609   3.857
 2368SOL    HW3 9503   3.470   2.723   3.864
 2368SOL    MW4 9504   3.551   2.692   3.876
 2369SOL     OW 9505   3.785   2.801   3.739
 2369SOL    HW2 9506   3.864   2.765   3.779
 2369SOL    HW3 9507   3.714   2.771   3.796
 2369SOL    MW4 9508   3.786   2.792   3.752
 2370SOL     OW 9509   3.780   3.045   3.866
 2370SOL    HW2 9510   3.713   3.103   3.830
 2370SOL    HW3 9511   3.778   2.967   3.811
 2370SOL    MW4 9512   3.771   3.043   3.854
 2371SOL     OW 9513   3.586   3.203   3.736
 2371SOL    HW2 9514   3.589   3.287   3.781
 2371SOL    HW3 9515   3.625   3.221   3.650
 2371SOL    MW4 9516   3.592   3.216   3.730
 2372SOL     OW 9517   3.582   3.454   3.881
 2372SOL    HW2 9518   3.563   3.465   3.974
 2372SOL    HW3 9519   3.510   3.499   3.836
 2372SOL    MW4 9520   3.570   3.461   3.887
 2373SOL     OW 9521   3.795   3.588   3.797
 2373SOL    HW2 9522   3.779   3.678   3.826
 2373SOL    HW3 9523   3.720   3.538   3.830
 2373SOL    MW4 9524   3.783   3.593   3.805
 2374SOL     OW 9525   3.783   3.843   3.885
 2374SOL    HW2 9526   3.789   3.847   3.981
 2374SOL    HW3 9527   3.868   3.875   3.854
 2374SOL    MW4 9528   3.795   3.848   3.894
 2375SOL     OW 9529   3.556   3.983   3.728
 2375SOL    HW2 9530   3.559   4.073   3.761
 2375SOL    HW3 9531   3.635   3.942   3.764
 2375SOL    MW4 9532   3.567   3.989   3.737
 2376SOL     OW 9533   3.577   4.237   3.880
 2376SOL    HW2 9534   3.572   4.239   3.976
 2376SOL    HW3 9535   3.666   4.265   3.860
 2376SOL    MW4 9536   3.588   4.241   3.890
 2377SOL     OW 9537   3.835   4.337   3.797
 2377SOL    HW2 9538   3.907   4.281   3.827
 2377SOL    HW3 9539   3.847   4.342   3.702
 2377SOL    MW4 9540   3.846   4.331   3.788
 2378SOL     OW 9541   4.213   4.642   3.850
 2378SOL    HW2 9542   4.234   4.638   3.944
 2378SOL    HW3 9543   4.292   4.677   3.810
 2378SOL    MW4 9544   4.226   4.646   3.857
 2379SOL     OW 9545   3.987   0.103   3.745
 2379SOL    HW2 9546   4.072   0.073   3.777
 2379SOL    HW3 9547   3.996   0.103   3.650
 2379SOL    MW4 9548   4.000   0.099   3.737
 2380SOL     OW 9549   3.988   0.370   3.868
 2380SOL    HW2 9550   4.020   0.352   3.956
 2380SOL    HW3 9551   3.972   0.283   3.831
 2380SOL    MW4 9552   3.990   0.356   3.875
 2381SOL     OW 9553   4.219   0.505   3.752
 2381SOL    HW2 9554   4.132   0.464   3.752
 2381SOL    HW3 9555   4.252   0.491   3.664
 2381SOL    MW4 9556   4.212   0.498   3.741
 2382SOL     OW 9557   4.235   0.761   3.820
 2382SOL    HW2 9558   4.147   0.796   3.809
 2382SOL    HW3 9559   4.228   0.669   3.792
 2382SOL    MW4 9560   4.223   0.753   3.814
 2383SOL     OW 9561   3.994   0.880   3.773
 2383SOL    HW2 9562   4.015   0.962   3.818
 2383SOL    HW3 9563   4.009   0.899   3.680
 2383SOL    MW4 9564   3.998   0.893   3.767
 2384SOL     OW 9565   4.036   1.141   3.869
 2384SOL    HW2 9566   4.023   1.183   3.954
 2384SOL    HW3 9567   4.117   1.179   3.835
 2384SOL    MW4 9568   4.045   1.152   3.875
 2385SOL     OW 9569   4.247   1.290   3.781
 2385SOL    HW2 9570   4.238   1.384   3.800
 2385SOL    HW3 9571   4.242   1.285   3.685
 2385SOL    MW4 9572   4.245   1.302   3.771
 2386SOL     OW 9573   4.231   1.547   3.888
 2386SOL    HW2 9574   4.167   1.602   3.843
 2386SOL    HW3 9575   4.316   1.584   3.865
 2386SOL    MW4 9576   4.234   1.559   3.879
 2387SOL     OW 9577   4.008   1.671   3.753
 2387SOL    HW2 9578   3.979   1.759   3.779
 2387SOL    HW3 9579   3.955   1.612   3.807
 2387SOL    MW4 9580   3.997   1.675   3.764
 2388SOL     OW 9581   3.977   1.935   3.858
 2388SOL    HW2 9582   3.978   1.948   3.953
 2388SOL    HW3 9583   4.050   1.987   3.825
 2388SOL    MW4 9584   3.986   1.944   3.866
 2389SOL     OW 9585   4.212   2.034   3.743
 2389SOL    HW2 9586   4.214   2.128   3.759
 2389SOL    HW3 9587   4.219   2.026   3.648
 2389SOL    MW4 9588   4.213   2.045   3.733
 2390SOL     OW 9589   4.241   2.294   3.805
 2390SOL    HW2 9590   4.246   2.309   3.900
 2390SOL    HW3 9591   4.156   2.328   3.780
 2390SOL    MW4 9592   4.231   2.300   3.814
 2391SOL     OW 9593   3.987   2.393   3.742
 2391SOL    HW2 9594   3.974   2.485   3.766
 2391SOL    HW3 9595   3.918   2.346   3.789
 2391SOL    MW4 9596   3.976   2.399   3.751
 2392SOL     OW 9597   4.027   2.674   3.816
 2392SOL    HW2 9598   4.030   2.685   3.911
 2392SOL    HW3 9599   4.104   2.721   3.783
 2392SOL    MW4 9600   4.037   2.682   3.824
 2393SOL     OW 9601   4.254   2.824   3.730
 2393SOL    HW2 9602   4.248   2.911   3.771
 2393SOL    HW3 9603   4.321   2.778   3.781
 2393SOL    MW4 9604   4.262   2.830   3.742
 2394SOL     OW 9605   4.252   3.081   3.859
 2394SOL    HW2 9606   4.160   3.107   3.864
 2394SOL    HW3 9607   4.291   3.143   3.798
 2394SOL    MW4 9608   4.245   3.093   3.852
 2395SOL     OW 9609   4.003   3.202   3.816
 2395SOL    HW2 9610   3.929   3.143   3.828
 2395SOL    HW3 9611   4.014   3.207   3.721
 2395SOL    MW4 9612   3.995   3.195   3.805
 2396SOL     OW 9613   4.011   3.472   3.944
 2396SOL    HW2 9614   4.012   3.383   3.908
 2396SOL    HW3 9615   3.936   3.514   3.902
 2396SOL    MW4 9616   4.002   3.466   3.934
 2397SOL     OW 9617   4.226   3.606   3.810
 2397SOL    HW2 9618   4.154   3.549   3.837
 2397SOL    HW3 9619   4.305   3.564   3.843
 2397SOL    MW4 9620   4.227   3.593   3.818
 2398SOL     OW 9621   4.271   3.875   3.875
 2398SOL    HW2 9622   4.189   3.905   3.836
 2398SOL    HW3 9623   4.270   3.780   3.863
 2398SOL    MW4 9624   4.260   3.867   3.868
 2399SOL     OW 9625   4.024   3.948   3.766
 2399SOL    HW2 9626   4.049   4.038   3.788
 2399SOL    HW3 9627   4.039   3.942   3.672
 2399SOL    MW4 9628   4.029   3.959   3.757
 2400SOL     OW 9629   4.073   4.220   3.848
 2400SOL    HW2 9630   4.088   4.232   3.942
 2400SOL    HW3 9631   4.123   4.289   3.806
 2400SOL    MW4 9632   4.081   4.230   3.855
 2401SOL     OW 9633   4.260   4.394   3.727
 2401SOL    HW2 9634   4.244   4.478   3.768
 2401SOL    HW3 9635   4.340   4.362   3.768
 2401SOL    MW4 9636   4.268   4.401   3.738
 2402SOL     OW 9637   0.209   0.043   4.130
 2402SOL    HW2 9638   0.288   0.081   4.168
 2402SOL    HW3 9639   0.213  -0.050   4.153
 2402SOL    MW4 9640   0.220   0.035   4.138
 2403SOL     OW 9641   4.437   0.115   4.256
 2403SOL    HW2 9642   4.429   0.098   4.349
 2403SOL    HW3 9643   4.526   0.086   4.234
 2403SOL    MW4 9644   4.448   0.109   4.265
 2404SOL     OW 9645   4.462   0.381   4.138
 2404SOL    HW2 9646   4.452   0.296   4.182
 2404SOL    HW3 9647   4.460   0.360   4.044
 2404SOL    MW4 9648   4.460   0.367   4.131
 2405SOL     OW 9649   0.230   0.524   4.235
 2405SOL    HW2 9650   0.302   0.466   4.209
 2405SOL    HW3 9651   0.151   0.479   4.205
 2405SOL    MW4 9652   0.229   0.510   4.228
 2406SOL     OW 9653   0.155   0.784   4.126
 2406SOL    HW2 9654   0.083   0.829   4.169
 2406SOL    HW3 9655   0.161   0.700   4.172
 2406SOL    MW4 9656   0.147   0.779   4.138
 2407SOL     OW 9657   4.456   0.931   4.269
 2407SOL    HW2 9658   4.385   0.888   4.220
 2407SOL    HW3 9659   4.469   1.014   4.224
 2407SOL    MW4 9660   4.448   0.936   4.256
 2408SOL     OW 9661   4.466   1.194   4.161
 2408SOL    HW2 9662   4.546   1.234   4.196
 2408SOL    HW3 9663   4.491   1.163   4.074
 2408SOL    MW4 9664   4.480   1.195   4.155
 2409SOL     OW 9665   0.229   1.273   4.230
 2409SOL    HW2 9666   0.242   1.251   4.322
 2409SOL    HW3 9667   0.301   1.229   4.185
 2409SOL    MW4 9668   0.240   1.265   4.236
 2410SOL     OW 9669   0.482   1.772   4.696
 2410SOL    HW2 9670   0.484   1.864   4.671
 2410SOL    HW3 9671   0.453   1.726   4.617
 2410SOL    MW4 9672   0.478   1.778   4.682
 2411SOL     OW 9673   0.020   1.675   4.226
 2411SOL    HW2 9674  -0.060   1.634   4.193
 2411SOL    HW3 9675   0.025   1.758   4.179
 2411SOL    MW4 9676   0.010   1.680   4.216
 2412SOL     OW 9677   0.206   2.060   4.210
 2412SOL    HW2 9678   0.206   2.053   4.306
 2412SOL    HW3 9679   0.292   2.026   4.184
 2412SOL    MW4 9680   0.218   2.055   4.220
 2413SOL     OW 9681   0.453   1.406   4.628
 2413SOL    HW2 9682   0.429   1.476   4.568
 2413SOL    HW3 9683   0.445   1.445   4.715
 2413SOL    MW4 9684   0.449   1.421   4.632
 2414SOL     OW 9685   0.244   2.303   4.103
 2414SOL    HW2 9686   0.305   2.354   4.156
 2414SOL    HW3 9687   0.232   2.221   4.151
 2414SOL    MW4 9688   0.251   2.299   4.116
 2415SOL     OW 9689   0.017   2.412   4.226
 2415SOL    HW2 9690  -0.066   2.376   4.193
 2415SOL    HW3 9691   0.085   2.361   4.181
 2415SOL    MW4 9692   0.015   2.401   4.216
 2416SOL     OW 9693   4.487   2.667   4.140
 2416SOL    HW2 9694   4.560   2.708   4.188
 2416SOL    HW3 9695   4.489   2.575   4.167
 2416SOL    MW4 9696   4.497   2.660   4.150
 2417SOL     OW 9697   0.208   2.785   4.258
 2417SOL    HW2 9698   0.260   2.751   4.185
 2417SOL    HW3 9699   0.193   2.877   4.236
 2417SOL    MW4 9700   0.213   2.792   4.246
 2418SOL     OW 9701   0.177   3.050   4.181
 2418SOL    HW2 9702   0.261   3.090   4.205
 2418SOL    HW3 9703   0.112   3.096   4.234
 2418SOL    MW4 9704   0.180   3.061   4.191
 2419SOL     OW 9705   4.465   3.223   4.268
 2419SOL    HW2 9706   4.394   3.185   4.216
 2419SOL    HW3 9707   4.489   3.303   4.222
 2419SOL    MW4 9708   4.459   3.229   4.255
 2420SOL     OW 9709   0.021   3.473   4.135
 2420SOL    HW2 9710  -0.048   3.524   4.176
 2420SOL    HW3 9711  -0.001   3.474   4.041
 2420SOL    MW4 9712   0.009   3.480   4.128
 2421SOL     OW 9713   0.236   3.648   4.177
 2421SOL    HW2 9714   0.307   3.584   4.190
 2421SOL    HW3 9715   0.160   3.595   4.153
 2421SOL    MW4 9716   0.235   3.632   4.175
 2422SOL     OW 9717   0.238   3.920   4.108
 2422SOL    HW2 9718   0.154   3.942   4.149
 2422SOL    HW3 9719   0.253   3.828   4.133
 2422SOL    MW4 9720   0.229   3.911   4.117
 2423SOL     OW 9721   4.478   4.017   4.193
 2423SOL    HW2 9722   4.505   4.001   4.284
 2423SOL    HW3 9723   4.405   3.957   4.178
 2423SOL    MW4 9724   4.472   4.007   4.203
 2424SOL     OW 9725   4.478   4.272   4.115
 2424SOL    HW2 9726   4.479   4.181   4.144
 2424SOL    HW3 9727   4.484   4.267   4.020
 2424SOL    MW4 9728   4.479   4.259   4.106
 2425SOL     OW 9729   0.226   4.443   4.233
 2425SOL    HW2 9730   0.217   4.476   4.322
 2425SOL    HW3 9731   0.148   4.391   4.218
 2425SOL    MW4 9732   0.215   4.441   4.243
 2426SOL     OW 9733   0.706   0.026   4.105
 2426SOL    HW2 9734   0.646   0.083   4.154
 2426SOL    HW3 9735   0.685   0.043   4.013
 2426SOL    MW4 9736   0.695   0.036   4.099
 2427SOL     OW 9737   0.468   0.124   4.269
 2427SOL    HW2 9738   0.448   0.111   4.362
 2427SOL    HW3 9739   0.464   0.219   4.256
 2427SOL    MW4 9740   0.465   0.135   4.280
 2428SOL     OW 9741   0.444   0.377   4.151
 2428SOL    HW2 9742   0.525   0.422   4.176
 2428SOL    HW3 9743   0.447   0.374   4.055
 2428SOL    MW4 9744   0.455   0.382   4.142
 2429SOL     OW 9745   0.671   0.505   4.252
 2429SOL    HW2 9746   0.740   0.457   4.206
 2429SOL    HW3 9747   0.671   0.592   4.211
 2429SOL    MW4 9748   0.680   0.510   4.240
 2430SOL     OW 9749   0.644   0.753   4.137
 2430SOL    HW2 9750   0.563   0.792   4.171
 2430SOL    HW3 9751   0.633   0.755   4.042
 2430SOL    MW4 9752   0.632   0.758   4.129
 2431SOL     OW 9753   0.423   0.858   4.229
 2431SOL    HW2 9754   0.432   0.950   4.202
 2431SOL    HW3 9755   0.338   0.831   4.193
 2431SOL    MW4 9756   0.413   0.867   4.221
 2432SOL     OW 9757   0.446   1.121   4.141
 2432SOL    HW2 9758   0.527   1.162   4.172
 2432SOL    HW3 9759   0.453   1.122   4.046
 2432SOL    MW4 9760   0.458   1.127   4.133
 2433SOL     OW 9761   0.670   1.233   4.240
 2433SOL    HW2 9762   0.679   1.249   4.334
 2433SOL    HW3 9763   0.659   1.320   4.202
 2433SOL    MW4 9764   0.670   1.246   4.248
 2434SOL     OW 9765   0.642   1.502   4.137
 2434SOL    HW2 9766   0.729   1.535   4.161
 2434SOL    HW3 9767   0.647   1.490   4.042
 2434SOL    MW4 9768   0.654   1.505   4.128
 2435SOL     OW 9769   0.225   1.526   4.121
 2435SOL    HW2 9770   0.219   1.439   4.160
 2435SOL    HW3 9771   0.145   1.570   4.150
 2435SOL    MW4 9772   0.214   1.520   4.130
 2436SOL     OW 9773   0.458   1.927   4.137
 2436SOL    HW2 9774   0.472   1.840   4.177
 2436SOL    HW3 9775   0.443   1.908   4.045
 2436SOL    MW4 9776   0.458   1.913   4.130
 2437SOL     OW 9777   0.699   2.051   4.215
 2437SOL    HW2 9778   0.702   2.024   4.306
 2437SOL    HW3 9779   0.616   2.016   4.182
 2437SOL    MW4 9780   0.688   2.043   4.223
 2438SOL     OW 9781   0.649   2.305   4.162
 2438SOL    HW2 9782   0.674   2.216   4.187
 2438SOL    HW3 9783   0.622   2.298   4.070
 2438SOL    MW4 9784   0.649   2.293   4.153
 2439SOL     OW 9785   0.422   2.440   4.253
 2439SOL    HW2 9786   0.438   2.512   4.192
 2439SOL    HW3 9787   0.506   2.396   4.262
 2439SOL    MW4 9788   0.435   2.444   4.246
 2440SOL     OW 9789   0.394   2.649   4.096
 2440SOL    HW2 9790   0.480   2.691   4.104
 2440SOL    HW3 9791   0.388   2.624   4.003
 2440SOL    MW4 9792   0.405   2.652   4.085
 2441SOL     OW 9793   0.643   2.756   4.157
 2441SOL    HW2 9794   0.645   2.738   4.251
 2441SOL    HW3 9795   0.641   2.851   4.150
 2441SOL    MW4 9796   0.643   2.766   4.169
 2442SOL     OW 9797   0.626   3.030   4.155
 2442SOL    HW2 9798   0.706   3.083   4.159
 2442SOL    HW3 9799   0.558   3.087   4.192
 2442SOL    MW4 9800   0.628   3.045   4.161
 2443SOL     OW 9801   0.428   3.182   4.251
 2443SOL    HW2 9802   0.424   3.201   4.345
 2443SOL    HW3 9803   0.426   3.268   4.210
 2443SOL    MW4 9804   0.428   3.196   4.258
 2444SOL     OW 9805   0.436   3.459   4.170
 2444SOL    HW2 9806   0.507   3.520   4.191
 2444SOL    HW3 9807   0.420   3.473   4.077
 2444SOL    MW4 9808   0.443   3.469   4.161
 2445SOL     OW 9809   0.619   3.664   4.244
 2445SOL    HW2 9810   0.608   3.684   4.337
 2445SOL    HW3 9811   0.705   3.624   4.237
 2445SOL    MW4 9812   0.629   3.662   4.255
 2446SOL     OW 9813   0.649   3.931   4.144
 2446SOL    HW2 9814   0.581   3.968   4.200
 2446SOL    HW3 9815   0.651   3.838   4.167
 2446SOL    MW4 9816   0.641   3.924   4.154
 2447SOL     OW 9817   0.434   4.052   4.266
 2447SOL    HW2 9818   0.444   4.140   4.229
 2447SOL    HW3 9819   0.363   4.013   4.215
 2447SOL    MW4 9820   0.426   4.058   4.254
 2448SOL     OW 9821   0.450   4.310   4.163
 2448SOL    HW2 9822   0.374   4.364   4.181
 2448SOL    HW3 9823   0.449   4.298   4.068
 2448SOL    MW4 9824   0.440   4.315   4.153
 2449SOL     OW 9825   0.697   4.431   4.249
 2449SOL    HW2 9826   0.608   4.397   4.236
 2449SOL    HW3 9827   0.704   4.503   4.187
 2449SOL    MW4 9828   0.686   4.436   4.239
 2450SOL     OW 9829   1.160   4.621   4.159
 2450SOL    HW2 9830   1.135   4.538   4.201
 2450SOL    HW3 9831   1.172   4.598   4.067
 2450SOL    MW4 9832   1.158   4.607   4.152
 2451SOL     OW 9833   0.909   0.119   4.249
 2451SOL    HW2 9834   0.993   0.081   4.222
 2451SOL    HW3 9835   0.846   0.085   4.185
 2451SOL    MW4 9836   0.912   0.110   4.237
 2452SOL     OW 9837   0.898   0.369   4.131
 2452SOL    HW2 9838   0.981   0.411   4.155
 2452SOL    HW3 9839   0.906   0.280   4.164
 2452SOL    MW4 9840   0.910   0.363   4.139
 2453SOL     OW 9841   1.168   0.449   4.207
 2453SOL    HW2 9842   1.182   0.441   4.302
 2453SOL    HW3 9843   1.244   0.406   4.168
 2453SOL    MW4 9844   1.180   0.442   4.215
 2454SOL     OW 9845   1.132   0.711   4.151
 2454SOL    HW2 9846   1.209   0.765   4.171
 2454SOL    HW3 9847   1.161   0.621   4.166
 2454SOL    MW4 9848   1.146   0.706   4.156
 2455SOL     OW 9849   0.901   0.853   4.247
 2455SOL    HW2 9850   0.982   0.807   4.226
 2455SOL    HW3 9851   0.832   0.794   4.217
 2455SOL    MW4 9852   0.902   0.839   4.241
 2456SOL     OW 9853   0.908   1.116   4.160
 2456SOL    HW2 9854   0.906   1.023   4.181
 2456SOL    HW3 9855   0.825   1.150   4.194
 2456SOL    MW4 9856   0.897   1.108   4.167
 2457SOL     OW 9857   1.157   1.269   4.191
 2457SOL    HW2 9858   1.180   1.265   4.284
 2457SOL    HW3 9859   1.077   1.216   4.184
 2457SOL    MW4 9860   1.149   1.261   4.203
 2458SOL     OW 9861   1.138   1.560   4.136
 2458SOL    HW2 9862   1.056   1.587   4.178
 2458SOL    HW3 9863   1.131   1.465   4.130
 2458SOL    MW4 9864   1.126   1.551   4.140
 2459SOL     OW 9865   0.896   1.619   4.227
 2459SOL    HW2 9866   0.876   1.617   4.321
 2459SOL    HW3 9867   0.888   1.711   4.203
 2459SOL    MW4 9868   0.892   1.631   4.236
 2460SOL     OW 9869   0.911   1.892   4.123
 2460SOL    HW2 9870   0.843   1.953   4.150
 2460SOL    HW3 9871   0.915   1.901   4.028
 2460SOL    MW4 9872   0.903   1.901   4.114
 2461SOL     OW 9873   1.145   2.046   4.220
 2461SOL    HW2 9874   1.168   2.029   4.312
 2461SOL    HW3 9875   1.077   1.982   4.201
 2461SOL    MW4 9876   1.139   2.035   4.230
 2462SOL     OW 9877   1.117   2.317   4.159
 2462SOL    HW2 9878   1.192   2.370   4.187
 2462SOL    HW3 9879   1.144   2.227   4.177
 2462SOL    MW4 9880   1.131   2.312   4.165
 2463SOL     OW 9881   0.909   2.435   4.261
 2463SOL    HW2 9882   0.978   2.381   4.222
 2463SOL    HW3 9883   0.828   2.387   4.241
 2463SOL    MW4 9884   0.907   2.421   4.253
 2464SOL     OW 9885   0.916   2.675   4.104
 2464SOL    HW2 9886   0.929   2.592   4.149
 2464SOL    HW3 9887   0.827   2.701   4.126
 2464SOL    MW4 9888   0.906   2.668   4.113
 2465SOL     OW 9889   1.092   2.831   4.232
 2465SOL    HW2 9890   1.088   2.925   4.218
 2465SOL    HW3 9891   1.020   2.796   4.180
 2465SOL    MW4 9892   1.082   2.839   4.223
 2466SOL     OW 9893   1.074   3.099   4.173
 2466SOL    HW2 9894   1.146   3.160   4.191
 2466SOL    HW3 9895   1.072   3.092   4.077
 2466SOL    MW4 9896   1.083   3.106   4.163
 2467SOL     OW 9897   0.829   3.204   4.193
 2467SOL    HW2 9898   0.816   3.193   4.287
 2467SOL    HW3 9899   0.919   3.177   4.177
 2467SOL    MW4 9900   0.839   3.199   4.203
 2468SOL     OW 9901   0.824   3.480   4.149
 2468SOL    HW2 9902   0.826   3.387   4.171
 2468SOL    HW3 9903   0.843   3.483   4.055
 2468SOL    MW4 9904   0.827   3.468   4.140
 2469SOL     OW 9905   1.095   3.585   4.201
 2469SOL    HW2 9906   1.096   3.679   4.183
 2469SOL    HW3 9907   1.002   3.562   4.205
 2469SOL    MW4 9908   1.083   3.594   4.199
 2470SOL     OW 9909   1.090   3.862   4.117
 2470SOL    HW2 9910   1.175   3.883   4.156
 2470SOL    HW3 9911   1.026   3.895   4.181
 2470SOL    MW4 9912   1.093   3.869   4.131
 2471SOL     OW 9913   0.884   3.965   4.272
 2471SOL    HW2 9914   0.900   4.060   4.273
 2471SOL    HW3 9915   0.805   3.954   4.219
 2471SOL    MW4 9916   0.876   3.976   4.265
 2472SOL     OW 9917   0.914   4.235   4.234
 2472SOL    HW2 9918   0.989   4.285   4.268
 2472SOL    HW3 9919   0.841   4.296   4.239
 2472SOL    MW4 9920   0.914   4.250   4.239
 2473SOL     OW 9921   1.150   4.377   4.286
 2473SOL    HW2 9922   1.194   4.399   4.369
 2473SOL    HW3 9923   1.216   4.328   4.237
 2473SOL    MW4 9924   1.165   4.373   4.290
 2474SOL     OW 9925   1.542   0.007   4.161
 2474SOL    HW2 9926   1.623   0.048   4.189
 2474SOL    HW3 9927   1.473   0.057   4.205
 2474SOL    MW4 9928   1.543   0.019   4.170
 2475SOL     OW 9929   1.335   0.122   4.291
 2475SOL    HW2 9930   1.337   0.115   4.386
 2475SOL    HW3 9931   1.273   0.054   4.264
 2475SOL    MW4 9932   1.327   0.112   4.300
 2476SOL     OW 9933   1.363   0.308   4.090
 2476SOL    HW2 9934   1.434   0.357   4.132
 2476SOL    HW3 9935   1.353   0.229   4.142
 2476SOL    MW4 9936   1.371   0.304   4.102
 2477SOL     OW 9937   1.587   0.442   4.230
 2477SOL    HW2 9938   1.599   0.431   4.324
 2477SOL    HW3 9939   1.584   0.537   4.217
 2477SOL    MW4 9940   1.588   0.453   4.241
 2478SOL     OW 9941   1.586   0.733   4.195
 2478SOL    HW2 9942   1.653   0.769   4.252
 2478SOL    HW3 9943   1.623   0.740   4.107
 2478SOL    MW4 9944   1.599   0.738   4.191
 2479SOL     OW 9945   1.351   0.865   4.193
 2479SOL    HW2 9946   1.377   0.954   4.166
 2479SOL    HW3 9947   1.431   0.814   4.186
 2479SOL    MW4 9948   1.365   0.870   4.188
 2480SOL     OW 9949   1.383   1.134   4.112
 2480SOL    HW2 9950   1.300   1.177   4.131
 2480SOL    HW3 9951   1.389   1.135   4.016
 2480SOL    MW4 9952   1.373   1.140   4.102
 2481SOL     OW 9953   1.597   1.276   4.250
 2481SOL    HW2 9954   1.583   1.263   4.344
 2481SOL    HW3 9955   1.525   1.228   4.209
 2481SOL    MW4 9956   1.586   1.268   4.257
 2482SOL     OW 9957   1.624   1.542   4.187
 2482SOL    HW2 9958   1.542   1.579   4.218
 2482SOL    HW3 9959   1.619   1.450   4.211
 2482SOL    MW4 9960   1.613   1.535   4.194
 2483SOL     OW 9961   1.381   1.614   4.276
 2483SOL    HW2 9962   1.398   1.708   4.277
 2483SOL    HW3 9963   1.301   1.604   4.223
 2483SOL    MW4 9964   1.373   1.625   4.269
 2484SOL     OW 9965   1.367   1.892   4.158
 2484SOL    HW2 9966   1.446   1.945   4.166
 2484SOL    HW3 9967   1.296   1.953   4.178
 2484SOL    MW4 9968   1.368   1.907   4.162
 2485SOL     OW 9969   1.549   2.087   4.255
 2485SOL    HW2 9970   1.640   2.059   4.255
 2485SOL    HW3 9971   1.552   2.181   4.241
 2485SOL    MW4 9972   1.561   2.096   4.253
 2486SOL     OW 9973   1.573   2.348   4.196
 2486SOL    HW2 9974   1.642   2.398   4.240
 2486SOL    HW3 9975   1.601   2.345   4.104
 2486SOL    MW4 9976   1.586   2.354   4.189
 2487SOL     OW 9977   1.554   2.792   4.213
 2487SOL    HW2 9978   1.573   2.791   4.307
 2487SOL    HW3 9979   1.639   2.807   4.172
 2487SOL    MW4 9980   1.568   2.794   4.220
 2488SOL     OW 9981   1.330   2.687   4.112
 2488SOL    HW2 9982   1.411   2.714   4.155
 2488SOL    HW3 9983   1.262   2.742   4.150
 2488SOL    MW4 9984   1.332   2.698   4.122
 2489SOL     OW 9985   1.562   2.281   4.647
 2489SOL    HW2 9986   1.577   2.346   4.716
 2489SOL    HW3 9987   1.645   2.233   4.641
 2489SOL    MW4 9988   1.575   2.283   4.655
 2490SOL     OW 9989   1.510   3.084   4.144
 2490SOL    HW2 9990   1.573   3.124   4.204
 2490SOL    HW3 9991   1.500   2.994   4.176
 2490SOL    MW4 9992   1.517   3.077   4.156
 2491SOL     OW 9993   1.310   3.244   4.247
 2491SOL    HW2 9994   1.381   3.189   4.213
 2491SOL    HW3 9995   1.331   3.332   4.218
 2491SOL    MW4 9996   1.322   3.248   4.239
 2492SOL     OW 9997   1.347   3.493   4.129
 2492SOL    HW2 9998   1.260   3.515   4.162
 2492SOL    HW3 9999   1.334   3.479   4.035
 2492SOL    MW410000   1.334   3.494   4.121
 2493SOL     OW10001   1.584   3.586   4.214
 2493SOL    HW210002   1.590   3.581   4.309
 2493SOL    HW310003   1.500   3.546   4.193
 2493SOL    MW410004   1.574   3.580   4.223
 2494SOL     OW10005   1.533   3.855   4.097
 2494SOL    HW210006   1.454   3.892   4.136
 2494SOL    HW310007   1.537   3.765   4.131
 2494SOL    MW410008   1.523   3.848   4.107
 2495SOL     OW10009   1.320   3.958   4.232
 2495SOL    HW210010   1.326   3.957   4.327
 2495SOL    HW310011   1.314   4.050   4.209
 2495SOL    MW410012   1.320   3.970   4.241
 2496SOL     OW10013   1.334   4.241   4.129
 2496SOL    HW210014   1.414   4.282   4.163
 2496SOL    HW310015   1.347   4.238   4.034
 2496SOL    MW410016   1.346   4.246   4.121
 2497SOL     OW10017   1.559   4.395   4.241
 2497SOL    HW210018   1.581   4.487   4.225
 2497SOL    HW310019   1.627   4.346   4.195
 2497SOL    MW410020   1.571   4.401   4.233
 2498SOL     OW10021   1.979   4.606   4.171
 2498SOL    HW210022   1.918   4.674   4.198
 2498SOL    HW310023   1.999   4.625   4.079
 2498SOL    MW410024   1.974   4.617   4.163
 2499SOL     OW10025   1.785   0.123   4.238
 2499SOL    HW210026   1.804   0.122   4.331
 2499SOL    HW310027   1.795   0.215   4.212
 2499SOL    MW410028   1.789   0.135   4.247
 2500SOL     OW10029   1.824   0.372   4.116
 2500SOL    HW210030   1.896   0.421   4.156
 2500SOL    HW310031   1.745   0.410   4.154
 2500SOL    MW410032   1.823   0.384   4.126
 2501SOL     OW10033   2.034   0.486   4.255
 2501SOL    HW210034   1.995   0.500   4.341
 2501SOL    HW310035   2.105   0.423   4.270
 2501SOL    MW410036   2.038   0.480   4.268
 2502SOL     OW10037   2.039   0.749   4.115
 2502SOL    HW210038   2.112   0.803   4.146
 2502SOL    HW310039   2.051   0.665   4.159
 2502SOL    MW410040   2.050   0.745   4.125
 2503SOL     OW10041   1.836   0.873   4.273
 2503SOL    HW210042   1.821   0.960   4.237
 2503SOL    HW310043   1.915   0.841   4.229
 2503SOL    MW410044   1.844   0.880   4.263
 2504SOL     OW10045   1.847   1.144   4.172
 2504SOL    HW210046   1.917   1.180   4.227
 2504SOL    HW310047   1.766   1.182   4.207
 2504SOL    MW410048   1.846   1.154   4.184
 2505SOL     OW10049   2.059   1.300   4.260
 2505SOL    HW210050   2.136   1.262   4.217
 2505SOL    HW310051   2.045   1.384   4.216
 2505SOL    MW410052   2.067   1.306   4.248
 2506SOL     OW10053   2.028   1.552   4.159
 2506SOL    HW210054   2.107   1.605   4.170
 2506SOL    HW310055   2.009   1.555   4.065
 2506SOL    MW410056   2.036   1.559   4.148
 2507SOL     OW10057   1.826   1.728   4.205
 2507SOL    HW210058   1.902   1.671   4.192
 2507SOL    HW310059   1.750   1.670   4.193
 2507SOL    MW410060   1.826   1.712   4.202
 2508SOL     OW10061   1.805   2.005   4.147
 2508SOL    HW210062   1.802   1.911   4.166
 2508SOL    HW310063   1.895   2.031   4.169
 2508SOL    MW410064   1.817   1.996   4.152
 2509SOL     OW10065   1.691   2.532   4.389
 2509SOL    HW210066   1.733   2.505   4.471
 2509SOL    HW310067   1.763   2.568   4.336
 2509SOL    MW410068   1.706   2.533   4.393
 2510SOL     OW10069   2.480   2.348   4.206
 2510SOL    HW210070   2.498   2.256   4.222
 2510SOL    HW310071   2.432   2.350   4.124
 2510SOL    MW410072   2.476   2.336   4.197
 2511SOL     OW10073   1.791   2.984   4.372
 2511SOL    HW210074   1.795   2.907   4.315
 2511SOL    HW310075   1.879   2.989   4.411
 2511SOL    MW410076   1.803   2.974   4.370
 2512SOL     OW10077   1.815   2.846   4.123
 2512SOL    HW210078   1.884   2.788   4.153
 2512SOL    HW310079   1.856   2.933   4.121
 2512SOL    MW410080   1.829   2.850   4.127
 2513SOL     OW10081   2.004   3.210   4.313
 2513SOL    HW210082   2.017   3.132   4.368
 2513SOL    HW310083   1.991   3.175   4.225
 2513SOL    MW410084   2.004   3.195   4.309
 2514SOL     OW10085   2.141   2.853   4.084
 2514SOL    HW210086   2.229   2.890   4.095
 2514SOL    HW310087   2.112   2.834   4.173
 2514SOL    MW410088   2.149   2.856   4.097
 2515SOL     OW10089   1.717   3.267   4.241
 2515SOL    HW210090   1.752   3.339   4.190
 2515SOL    HW310091   1.793   3.214   4.265
 2515SOL    MW410092   1.731   3.269   4.238
 2516SOL     OW10093   1.838   3.488   4.108
 2516SOL    HW210094   1.770   3.538   4.152
 2516SOL    HW310095   1.821   3.500   4.015
 2516SOL    MW410096   1.827   3.496   4.102
 2517SOL     OW10097   2.036   3.619   4.257
 2517SOL    HW210098   2.044   3.707   4.221
 2517SOL    HW310099   1.980   3.573   4.195
 2517SOL    MW410100   2.030   3.625   4.244
 2518SOL     OW10101   2.007   3.877   4.156
 2518SOL    HW210102   1.915   3.894   4.177
 2518SOL    HW310103   2.013   3.890   4.061
 2518SOL    MW410104   1.996   3.881   4.146
 2519SOL     OW10105   1.759   3.940   4.240
 2519SOL    HW210106   1.761   4.027   4.200
 2519SOL    HW310107   1.682   3.898   4.202
 2519SOL    MW410108   1.749   3.946   4.229
 2520SOL     OW10109   1.750   4.192   4.131
 2520SOL    HW210110   1.826   4.239   4.167
 2520SOL    HW310111   1.768   4.186   4.037
 2520SOL    MW410112   1.763   4.197   4.124
 2521SOL     OW10113   1.961   4.319   4.225
 2521SOL    HW210114   1.971   4.305   4.319
 2521SOL    HW310115   1.958   4.414   4.215
 2521SOL    MW410116   1.962   4.330   4.236
 2522SOL     OW10117   2.455   4.617   4.230
 2522SOL    HW210118   2.544   4.647   4.214
 2522SOL    HW310119   2.463   4.522   4.241
 2522SOL    MW410120   2.468   4.608   4.229
 2523SOL     OW10121   2.214   0.068   4.305
 2523SOL    HW210122   2.291   0.017   4.280
 2523SOL    HW310123   2.141   0.006   4.300
 2523SOL    MW410124   2.214   0.053   4.301
 2524SOL     OW10125   2.272   0.300   4.177
 2524SOL    HW210126   2.252   0.213   4.211
 2524SOL    HW310127   2.265   0.291   4.082
 2524SOL    MW410128   2.268   0.288   4.169
 2525SOL     OW10129   2.452   0.486   4.264
 2525SOL    HW210130   2.467   0.473   4.358
 2525SOL    HW310131   2.392   0.416   4.239
 2525SOL    MW410132   2.446   0.475   4.273
 2526SOL     OW10133   2.465   0.748   4.180
 2526SOL    HW210134   2.460   0.656   4.204
 2526SOL    HW310135   2.452   0.749   4.085
 2526SOL    MW410136   2.463   0.736   4.170
 2527SOL     OW10137   2.240   0.906   4.242
 2527SOL    HW210138   2.209   0.887   4.330
 2527SOL    HW310139   2.324   0.861   4.236
 2527SOL    MW410140   2.247   0.897   4.253
 2528SOL     OW10141   2.279   1.160   4.139
 2528SOL    HW210142   2.362   1.195   4.169
 2528SOL    HW310143   2.269   1.077   4.184
 2528SOL    MW410144   2.288   1.154   4.149
 2529SOL     OW10145   2.513   1.296   4.240
 2529SOL    HW210146   2.533   1.290   4.333
 2529SOL    HW310147   2.585   1.251   4.196
 2529SOL    MW410148   2.525   1.289   4.246
 2530SOL     OW10149   2.482   1.528   4.100
 2530SOL    HW210150   2.492   1.446   4.148
 2530SOL    HW310151   2.467   1.501   4.009
 2530SOL    MW410152   2.481   1.514   4.094
 2531SOL     OW10153   2.283   1.673   4.213
 2531SOL    HW210154   2.361   1.627   4.180
 2531SOL    HW310155   2.295   1.764   4.184
 2531SOL    MW410156   2.295   1.679   4.205
 2532SOL     OW10157   2.272   1.951   4.110
 2532SOL    HW210158   2.350   1.976   4.159
 2532SOL    HW310159   2.202   2.004   4.147
 2532SOL    MW410160   2.273   1.961   4.121
 2533SOL     OW10161   2.489   2.045   4.256
 2533SOL    HW210162   2.498   2.020   4.348
 2533SOL    HW310163   2.567   2.009   4.214
 2533SOL    MW410164   2.501   2.037   4.263
 2534SOL     OW10165   2.730   2.483   4.218
 2534SOL    HW210166   2.639   2.461   4.195
 2534SOL    HW310167   2.722   2.535   4.298
 2534SOL    MW410168   2.717   2.487   4.226
 2535SOL     OW10169   2.433   2.473   4.513
 2535SOL    HW210170   2.385   2.489   4.432
 2535SOL    HW310171   2.395   2.535   4.576
 2535SOL    MW410172   2.422   2.484   4.510
 2536SOL     OW10173   1.909   2.613   4.237
 2536SOL    HW210174   1.969   2.678   4.275
 2536SOL    HW310175   1.966   2.553   4.189
 2536SOL    MW410176   1.925   2.614   4.236
 2537SOL     OW10177   2.421   2.802   4.339
 2537SOL    HW210178   2.374   2.725   4.308
 2537SOL    HW310179   2.364   2.838   4.407
 2537SOL    MW410180   2.407   2.797   4.344
 2538SOL     OW10181   2.294   3.206   4.259
 2538SOL    HW210182   2.203   3.193   4.283
 2538SOL    HW310183   2.343   3.184   4.338
 2538SOL    MW410184   2.289   3.201   4.272
 2539SOL     OW10185   1.977   3.074   4.077
 2539SOL    HW210186   1.995   3.135   4.006
 2539SOL    HW310187   2.035   2.999   4.060
 2539SOL    MW410188   1.987   3.072   4.065
 2540SOL     OW10189   2.235   3.459   4.149
 2540SOL    HW210190   2.259   3.375   4.189
 2540SOL    HW310191   2.171   3.497   4.209
 2540SOL    MW410192   2.230   3.453   4.163
 2541SOL     OW10193   2.449   3.594   4.240
 2541SOL    HW210194   2.370   3.556   4.203
 2541SOL    HW310195   2.460   3.677   4.194
 2541SOL    MW410196   2.440   3.600   4.229
 2542SOL     OW10197   2.459   3.852   4.133
 2542SOL    HW210198   2.539   3.897   4.162
 2542SOL    HW310199   2.469   3.844   4.038
 2542SOL    MW410200   2.471   3.857   4.125
 2543SOL     OW10201   2.238   3.958   4.296
 2543SOL    HW210202   2.301   3.917   4.237
 2543SOL    HW310203   2.153   3.936   4.259
 2543SOL    MW410204   2.235   3.950   4.283
 2544SOL     OW10205   2.218   4.207   4.169
 2544SOL    HW210206   2.218   4.117   4.202
 2544SOL    HW310207   2.133   4.242   4.195
 2544SOL    MW410208   2.207   4.200   4.177
 2545SOL     OW10209   2.462   4.330   4.268
 2545SOL    HW210210   2.540   4.289   4.231
 2545SOL    HW310211   2.389   4.280   4.231
 2545SOL    MW410212   2.463   4.318   4.258
 2546SOL     OW10213   2.956   4.606   4.156
 2546SOL    HW210214   3.030   4.645   4.202
 2546SOL    HW310215   2.956   4.514   4.185
 2546SOL    MW410216   2.966   4.599   4.166
 2547SOL     OW10217   2.706   0.092   4.204
 2547SOL    HW210218   2.703   0.187   4.187
 2547SOL    HW310219   2.787   0.063   4.162
 2547SOL    MW410220   2.716   0.101   4.196
 2548SOL     OW10221   2.674   0.369   4.154
 2548SOL    HW210222   2.594   0.410   4.186
 2548SOL    HW310223   2.667   0.373   4.059
 2548SOL    MW410224   2.663   0.375   4.146
 2549SOL     OW10225   3.341   0.781   4.091
 2549SOL    HW210226   3.367   0.718   4.157
 2549SOL    HW310227   3.256   0.814   4.121
 2549SOL    MW410228   3.333   0.777   4.103
 2550SOL     OW10229   3.063   0.832   4.093
 2550SOL    HW210230   3.071   0.927   4.082
 2550SOL    HW310231   3.001   0.805   4.025
 2550SOL    MW410232   3.056   0.841   4.082
 2551SOL     OW10233   2.684   0.911   4.254
 2551SOL    HW210234   2.754   0.846   4.252
 2551SOL    HW310235   2.608   0.865   4.217
 2551SOL    MW410236   2.683   0.896   4.249
 2552SOL     OW10237   2.721   1.154   4.100
 2552SOL    HW210238   2.709   1.073   4.150
 2552SOL    HW310239   2.704   1.128   4.009
 2552SOL    MW410240   2.717   1.140   4.094
 2553SOL     OW10241   2.919   1.276   4.224
 2553SOL    HW210242   2.996   1.223   4.201
 2553SOL    HW310243   2.847   1.236   4.175
 2553SOL    MW410244   2.920   1.263   4.215
 2554SOL     OW10245   2.933   1.544   4.144
 2554SOL    HW210246   3.012   1.590   4.173
 2554SOL    HW310247   2.942   1.456   4.181
 2554SOL    MW410248   2.945   1.538   4.153
 2555SOL     OW10249   2.697   1.666   4.235
 2555SOL    HW210250   2.785   1.640   4.210
 2555SOL    HW310251   2.640   1.623   4.171
 2555SOL    MW410252   2.701   1.657   4.224
 2556SOL     OW10253   2.710   1.938   4.146
 2556SOL    HW210254   2.701   1.849   4.180
 2556SOL    HW310255   2.708   1.928   4.051
 2556SOL    MW410256   2.709   1.925   4.138
 2557SOL     OW10257   2.912   2.095   4.248
 2557SOL    HW210258   2.916   2.186   4.217
 2557SOL    HW310259   2.838   2.057   4.200
 2557SOL    MW410260   2.903   2.102   4.237
 2558SOL     OW10261   2.953   2.340   4.168
 2558SOL    HW210262   3.023   2.380   4.220
 2558SOL    HW310263   2.876   2.392   4.189
 2558SOL    MW410264   2.952   2.352   4.178
 2559SOL     OW10265   2.688   2.783   4.096
 2559SOL    HW210266   2.614   2.829   4.136
 2559SOL    HW310267   2.687   2.696   4.136
 2559SOL    MW410268   2.678   2.778   4.107
 2560SOL     OW10269   2.395   2.987   4.124
 2560SOL    HW210270   2.403   2.922   4.194
 2560SOL    HW310271   2.372   3.068   4.169
 2560SOL    MW410272   2.393   2.989   4.139
 2561SOL     OW10273   2.920   2.915   4.060
 2561SOL    HW210274   2.834   2.878   4.077
 2561SOL    HW310275   2.909   2.969   3.982
 2561SOL    MW410276   2.907   2.917   4.052
 2562SOL     OW10277   2.994   3.101   4.249
 2562SOL    HW210278   3.004   3.044   4.325
 2562SOL    HW310279   2.975   3.042   4.176
 2562SOL    MW410280   2.993   3.086   4.249
 2563SOL     OW10281   2.706   3.197   4.304
 2563SOL    HW210282   2.704   3.167   4.394
 2563SOL    HW310283   2.790   3.166   4.270
 2563SOL    MW410284   2.717   3.189   4.311
 2564SOL     OW10285   2.663   3.424   4.156
 2564SOL    HW210286   2.654   3.352   4.218
 2564SOL    HW310287   2.593   3.485   4.179
 2564SOL    MW410288   2.652   3.423   4.167
 2565SOL     OW10289   2.920   3.562   4.202
 2565SOL    HW210290   2.909   3.576   4.296
 2565SOL    HW310291   2.851   3.500   4.179
 2565SOL    MW410292   2.909   3.556   4.211
 2566SOL     OW10293   2.905   3.843   4.113
 2566SOL    HW210294   2.973   3.897   4.154
 2566SOL    HW310295   2.921   3.755   4.148
 2566SOL    MW410296   2.916   3.838   4.123
 2567SOL     OW10297   2.691   3.949   4.261
 2567SOL    HW210298   2.687   4.040   4.231
 2567SOL    HW310299   2.761   3.910   4.210
 2567SOL    MW410300   2.699   3.956   4.251
 2568SOL     OW10301   2.700   4.210   4.166
 2568SOL    HW210302   2.783   4.251   4.189
 2568SOL    HW310303   2.696   4.215   4.071
 2568SOL    MW410304   2.710   4.216   4.157
 2569SOL     OW10305   2.939   4.349   4.244
 2569SOL    HW210306   2.950   4.333   4.337
 2569SOL    HW310307   3.019   4.316   4.203
 2569SOL    MW410308   2.951   4.343   4.251
 2570SOL     OW10309   3.347   4.623   4.127
 2570SOL    HW210310   3.401   4.670   4.190
 2570SOL    HW310311   3.349   4.532   4.157
 2570SOL    MW410312   3.354   4.617   4.139
 2571SOL     OW10313   3.148   4.665   4.351
 2571SOL    HW210314   3.161   4.594   4.413
 2571SOL    HW310315   3.208   4.645   4.279
 2571SOL    MW410316   3.157   4.653   4.350
 2572SOL     OW10317   3.129   0.403   4.171
 2572SOL    HW210318   3.127   0.333   4.237
 2572SOL    HW310319   3.047   0.450   4.183
 2572SOL    MW410320   3.118   0.400   4.181
 2573SOL     OW10321   3.354   0.536   4.256
 2573SOL    HW210322   3.419   0.474   4.223
 2573SOL    HW310323   3.270   0.498   4.230
 2573SOL    MW410324   3.351   0.523   4.248
 2574SOL     OW10325   3.481   0.692   4.435
 2574SOL    HW210326   3.451   0.782   4.421
 2574SOL    HW310327   3.423   0.639   4.382
 2574SOL    MW410328   3.470   0.697   4.426
 2575SOL     OW10329   3.196   0.886   4.628
 2575SOL    HW210330   3.240   0.927   4.703
 2575SOL    HW310331   3.177   0.797   4.657
 2575SOL    MW410332   3.199   0.880   4.642
 2576SOL     OW10333   3.103   1.120   4.094
 2576SOL    HW210334   3.191   1.125   4.131
 2576SOL    HW310335   3.115   1.140   4.001
 2576SOL    MW410336   3.116   1.123   4.087
 2577SOL     OW10337   3.352   1.125   4.208
 2577SOL    HW210338   3.347   1.056   4.273
 2577SOL    HW310339   3.333   1.205   4.257
 2577SOL    MW410340   3.349   1.127   4.223
 2578SOL     OW10341   3.340   1.360   4.349
 2578SOL    HW210342   3.374   1.396   4.268
 2578SOL    HW310343   3.415   1.357   4.408
 2578SOL    MW410344   3.354   1.364   4.346
 2579SOL     OW10345   3.166   1.696   4.228
 2579SOL    HW210346   3.141   1.707   4.320
 2579SOL    HW310347   3.160   1.784   4.191
 2579SOL    MW410348   3.162   1.709   4.235
 2580SOL     OW10349   3.126   1.960   4.150
 2580SOL    HW210350   3.199   1.994   4.202
 2580SOL    HW310351   3.048   2.003   4.187
 2580SOL    MW410352   3.125   1.970   4.162
 2581SOL     OW10353   3.349   2.054   4.303
 2581SOL    HW210354   3.432   2.021   4.268
 2581SOL    HW310355   3.351   2.148   4.284
 2581SOL    MW410356   3.361   2.062   4.296
 2582SOL     OW10357   3.328   2.316   4.188
 2582SOL    HW210358   3.421   2.336   4.197
 2582SOL    HW310359   3.314   2.312   4.093
 2582SOL    MW410360   3.339   2.318   4.177
 2583SOL     OW10361   3.140   2.510   4.293
 2583SOL    HW210362   3.135   2.595   4.250
 2583SOL    HW310363   3.219   2.469   4.258
 2583SOL    MW410364   3.150   2.516   4.283
 2584SOL     OW10365   3.125   2.710   4.116
 2584SOL    HW210366   3.207   2.753   4.140
 2584SOL    HW310367   3.058   2.777   4.131
 2584SOL    MW410368   3.127   2.724   4.121
 2585SOL     OW10369   3.358   2.826   4.186
 2585SOL    HW210370   3.445   2.785   4.185
 2585SOL    HW310371   3.376   2.920   4.177
 2585SOL    MW410372   3.372   2.833   4.185
 2586SOL     OW10373   3.397   3.103   4.149
 2586SOL    HW210374   3.334   3.171   4.174
 2586SOL    HW310375   3.384   3.093   4.055
 2586SOL    MW410376   3.387   3.111   4.140
 2587SOL     OW10377   3.218   3.264   4.298
 2587SOL    HW210378   3.201   3.348   4.256
 2587SOL    HW310379   3.142   3.210   4.277
 2587SOL    MW410380   3.206   3.268   4.290
 2588SOL     OW10381   3.177   3.494   4.151
 2588SOL    HW210382   3.089   3.519   4.178
 2588SOL    HW310383   3.169   3.477   4.057
 2588SOL    MW410384   3.165   3.495   4.142
 2589SOL     OW10385   3.363   3.634   4.285
 2589SOL    HW210386   3.320   3.634   4.370
 2589SOL    HW310387   3.305   3.581   4.229
 2589SOL    MW410388   3.350   3.627   4.289
 2590SOL     OW10389   3.378   3.885   4.181
 2590SOL    HW210390   3.378   3.795   4.212
 2590SOL    HW310391   3.390   3.878   4.086
 2590SOL    MW410392   3.380   3.872   4.173
 2591SOL     OW10393   3.114   3.978   4.226
 2591SOL    HW210394   3.118   3.989   4.321
 2591SOL    HW310395   3.194   3.930   4.204
 2591SOL    MW410396   3.125   3.973   4.236
 2592SOL     OW10397   3.160   4.235   4.138
 2592SOL    HW210398   3.232   4.278   4.185
 2592SOL    HW310399   3.160   4.146   4.171
 2592SOL    MW410400   3.170   4.229   4.148
 2593SOL     OW10401   3.362   4.379   4.251
 2593SOL    HW210402   3.375   4.411   4.340
 2593SOL    HW310403   3.446   4.339   4.226
 2593SOL    MW410404   3.375   4.378   4.259
 2594SOL     OW10405   3.782   4.654   4.152
 2594SOL    HW210406   3.860   4.702   4.178
 2594SOL    HW310407   3.790   4.644   4.058
 2594SOL    MW410408   3.793   4.659   4.143
 2595SOL     OW10409   3.549   0.086   4.264
 2595SOL    HW210410   3.554   0.180   4.244
 2595SOL    HW310411   3.629   0.050   4.227
 2595SOL    MW410412   3.560   0.094   4.257
 2596SOL     OW10413   3.568   0.341   4.197
 2596SOL    HW210414   3.654   0.352   4.239
 2596SOL    HW310415   3.580   0.376   4.109
 2596SOL    MW410416   3.581   0.347   4.191
 2597SOL     OW10417   3.825   0.357   4.317
 2597SOL    HW210418   3.862   0.317   4.396
 2597SOL    HW310419   3.803   0.446   4.343
 2597SOL    MW410420   3.827   0.364   4.330
 2598SOL     OW10421   3.762   0.815   4.145
 2598SOL    HW210422   3.698   0.885   4.133
 2598SOL    HW310423   3.781   0.785   4.057
 2598SOL    MW410424   3.756   0.820   4.132
 2599SOL     OW10425   3.729   0.621   4.341
 2599SOL    HW210426   3.644   0.649   4.375
 2599SOL    HW310427   3.740   0.670   4.260
 2599SOL    MW410428   3.719   0.631   4.335
 2600SOL     OW10429   3.568   0.996   4.108
 2600SOL    HW210430   3.484   1.037   4.129
 2600SOL    HW310431   3.591   1.028   4.021
 2600SOL    MW410432   3.560   1.005   4.100
 2601SOL     OW10433   3.738   1.231   4.233
 2601SOL    HW210434   3.674   1.164   4.209
 2601SOL    HW310435   3.743   1.227   4.329
 2601SOL    MW410436   3.730   1.222   4.243
 2602SOL     OW10437   3.778   1.512   4.191
 2602SOL    HW210438   3.762   1.418   4.204
 2602SOL    HW310439   3.835   1.537   4.264
 2602SOL    MW410440   3.783   1.503   4.202
 2603SOL     OW10441   3.574   1.933   4.195
 2603SOL    HW210442   3.575   1.923   4.100
 2603SOL    HW310443   3.573   1.843   4.228
 2603SOL    MW410444   3.574   1.920   4.187
 2604SOL     OW10445   3.369   1.528   4.108
 2604SOL    HW210446   3.362   1.542   4.013
 2604SOL    HW310447   3.301   1.583   4.146
 2604SOL    MW410448   3.359   1.537   4.100
 2605SOL     OW10449   3.789   2.089   4.251
 2605SOL    HW210450   3.800   2.078   4.346
 2605SOL    HW310451   3.718   2.029   4.228
 2605SOL    MW410452   3.781   2.080   4.261
 2606SOL     OW10453   3.857   2.345   4.189
 2606SOL    HW210454   3.836   2.257   4.221
 2606SOL    HW310455   3.847   2.339   4.094
 2606SOL    MW410456   3.853   2.333   4.181
 2607SOL     OW10457   3.581   2.440   4.234
 2607SOL    HW210458   3.580   2.436   4.330
 2607SOL    HW310459   3.669   2.411   4.210
 2607SOL    MW410460   3.593   2.436   4.244
 2608SOL     OW10461   3.600   2.689   4.155
 2608SOL    HW210462   3.581   2.599   4.180
 2608SOL    HW310463   3.592   2.691   4.060
 2608SOL    MW410464   3.597   2.678   4.146
 2609SOL     OW10465   3.833   2.809   4.270
 2609SOL    HW210466   3.847   2.802   4.364
 2609SOL    HW310467   3.748   2.768   4.255
 2609SOL    MW410468   3.824   2.803   4.280
 2610SOL     OW10469   3.817   3.074   4.168
 2610SOL    HW210470   3.832   2.991   4.213
 2610SOL    HW310471   3.810   3.050   4.075
 2610SOL    MW410472   3.818   3.060   4.161
 2611SOL     OW10473   3.617   3.238   4.250
 2611SOL    HW210474   3.693   3.196   4.208
 2611SOL    HW310475   3.541   3.199   4.206
 2611SOL    MW410476   3.617   3.227   4.238
 2612SOL     OW10477   3.557   3.489   4.147
 2612SOL    HW210478   3.559   3.408   4.198
 2612SOL    HW310479   3.493   3.544   4.192
 2612SOL    MW410480   3.549   3.486   4.159
 2613SOL     OW10481   3.798   3.611   4.273
 2613SOL    HW210482   3.871   3.549   4.267
 2613SOL    HW310483   3.723   3.563   4.240
 2613SOL    MW410484   3.798   3.597   4.268
 2614SOL     OW10485   3.819   3.878   4.168
 2614SOL    HW210486   3.749   3.916   4.220
 2614SOL    HW310487   3.818   3.785   4.191
 2614SOL    MW410488   3.810   3.871   4.178
 2615SOL     OW10489   3.604   3.994   4.304
 2615SOL    HW210490   3.588   4.021   4.394
 2615SOL    HW310491   3.522   3.952   4.276
 2615SOL    MW410492   3.591   3.992   4.312
 2616SOL     OW10493   3.580   4.248   4.141
 2616SOL    HW210494   3.658   4.295   4.172
 2616SOL    HW310495   3.576   4.169   4.196
 2616SOL    MW410496   3.590   4.244   4.152
 2617SOL     OW10497   3.785   4.386   4.262
 2617SOL    HW210498   3.875   4.364   4.237
 2617SOL    HW310499   3.775   4.478   4.238
 2617SOL    MW410500   3.795   4.395   4.256
 2618SOL     OW10501   4.237   4.621   4.136
 2618SOL    HW210502   4.236   4.539   4.185
 2618SOL    HW310503   4.311   4.670   4.172
 2618SOL    MW410504   4.247   4.617   4.147
 2619SOL     OW10505   4.033   0.093   4.256
 2619SOL    HW210506   4.043   0.177   4.212
 2619SOL    HW310507   4.101   0.037   4.219
 2619SOL    MW410508   4.043   0.096   4.245
 2620SOL     OW10509   4.063   0.327   4.130
 2620SOL    HW210510   4.124   0.399   4.142
 2620SOL    HW310511   3.984   0.354   4.176
 2620SOL    MW410512   4.060   0.340   4.137
 2621SOL     OW10513   4.239   0.527   4.204
 2621SOL    HW210514   4.234   0.613   4.163
 2621SOL    HW310515   4.325   0.493   4.179
 2621SOL    MW410516   4.250   0.534   4.195
 2622SOL     OW10517   4.261   0.793   4.100
 2622SOL    HW210518   4.185   0.837   4.140
 2622SOL    HW310519   4.246   0.800   4.006
 2622SOL    MW410520   4.249   0.800   4.093
 2623SOL     OW10521   4.015   0.902   4.166
 2623SOL    HW210522   4.017   0.993   4.137
 2623SOL    HW310523   3.926   0.873   4.149
 2623SOL    MW410524   4.004   0.910   4.160
 2624SOL     OW10525   4.001   1.206   4.132
 2624SOL    HW210526   4.063   1.251   4.190
 2624SOL    HW310527   3.916   1.222   4.173
 2624SOL    MW410528   3.998   1.214   4.145
 2625SOL     OW10529   4.251   1.334   4.238
 2625SOL    HW210530   4.239   1.315   4.331
 2625SOL    HW310531   4.324   1.279   4.211
 2625SOL    MW410532   4.259   1.324   4.246
 2626SOL     OW10533   4.269   1.587   4.149
 2626SOL    HW210534   4.250   1.501   4.186
 2626SOL    HW310535   4.255   1.577   4.055
 2626SOL    MW410536   4.265   1.575   4.142
 2627SOL     OW10537   4.151   1.788   4.300
 2627SOL    HW210538   4.187   1.809   4.386
 2627SOL    HW310539   4.203   1.713   4.270
 2627SOL    MW410540   4.163   1.781   4.307
 2628SOL     OW10541   4.001   1.971   4.136
 2628SOL    HW210542   4.043   1.915   4.200
 2628SOL    HW310543   3.922   2.003   4.180
 2628SOL    MW410544   3.996   1.968   4.150
 2629SOL     OW10545   4.465   1.944   4.098
 2629SOL    HW210546   4.542   1.989   4.134
 2629SOL    HW310547   4.391   1.977   4.149
 2629SOL    MW410548   4.465   1.954   4.110
 2630SOL     OW10549   4.288   2.333   4.081
 2630SOL    HW210550   4.215   2.378   4.124
 2630SOL    HW310551   4.291   2.247   4.123
 2630SOL    MW410552   4.279   2.328   4.092
 2631SOL     OW10553   4.108   2.496   4.211
 2631SOL    HW210554   4.125   2.524   4.301
 2631SOL    HW310555   4.021   2.455   4.215
 2631SOL    MW410556   4.099   2.494   4.224
 2632SOL     OW10557   4.029   2.721   4.103
 2632SOL    HW210558   4.076   2.649   4.145
 2632SOL    HW310559   3.961   2.746   4.166
 2632SOL    MW410560   4.026   2.715   4.117
 2633SOL     OW10561   4.274   2.825   4.209
 2633SOL    HW210562   4.209   2.789   4.148
 2633SOL    HW310563   4.355   2.777   4.188
 2633SOL    MW410564   4.276   2.814   4.198
 2634SOL     OW10565   4.253   3.083   4.136
 2634SOL    HW210566   4.243   2.988   4.147
 2634SOL    HW310567   4.267   3.095   4.042
 2634SOL    MW410568   4.254   3.072   4.125
 2635SOL     OW10569   4.051   3.188   4.267
 2635SOL    HW210570   4.126   3.159   4.215
 2635SOL    HW310571   3.976   3.149   4.223
 2635SOL    MW410572   4.051   3.179   4.254
 2636SOL     OW10573   4.014   3.448   4.223
 2636SOL    HW210574   4.016   3.356   4.249
 2636SOL    HW310575   4.005   3.446   4.128
 2636SOL    MW410576   4.013   3.436   4.214
 2637SOL     OW10577   4.275   3.587   4.244
 2637SOL    HW210578   4.255   3.680   4.227
 2637SOL    HW310579   4.189   3.545   4.249
 2637SOL    MW410580   4.261   3.594   4.242
 2638SOL     OW10581   4.253   3.848   4.146
 2638SOL    HW210582   4.186   3.914   4.165
 2638SOL    HW310583   4.276   3.862   4.055
 2638SOL    MW410584   4.247   3.858   4.137
 2639SOL     OW10585   4.033   4.030   4.203
 2639SOL    HW210586   4.049   4.019   4.297
 2639SOL    HW310587   3.949   3.986   4.188
 2639SOL    MW410588   4.024   4.022   4.214
 2640SOL     OW10589   4.041   4.312   4.137
 2640SOL    HW210590   4.116   4.337   4.190
 2640SOL    HW310591   4.031   4.218   4.152
 2640SOL    MW410592   4.050   4.303   4.146
 2641SOL     OW10593   4.052   4.275   4.586
 2641SOL    HW210594   4.025   4.210   4.650
 2641SOL    HW310595   3.983   4.341   4.588
 2641SOL    MW410596   4.040   4.275   4.594
 2642SOL     OW10597   3.990   4.070   4.775
 2642SOL    HW210598   3.941   4.127   4.834
 2642SOL    HW310599   4.066   4.043   4.825
 2642SOL    MW410600   3.994   4.074   4.789
 2643SOL     OW10601   4.296   4.405   4.581
 2643SOL    HW210602   4.264   4.491   4.610
 2643SOL    HW310603   4.218   4.349   4.584
 2643SOL    MW410604   4.281   4.409   4.585
 2644SOL     OW10605   4.217   0.015   4.614
 2644SOL    HW210606   4.249   0.083   4.673
 2644SOL    HW310607   4.134   0.050   4.582
 2644SOL    MW410608   4.210   0.029   4.618
 2645SOL     OW10609   4.244   1.841   4.564
 2645SOL    HW210610   4.337   1.858   4.583
 2645SOL    HW310611   4.226   1.757   4.607
 2645SOL    MW410612   4.254   1.832   4.572
 2646SOL     OW10613   0.419   0.049   4.534
 2646SOL    HW210614   0.351  -0.015   4.554
 2646SOL    HW310615   0.500  -0.003   4.530
 2646SOL    MW410616   0.421   0.033   4.536
 2647SOL     OW10617   0.164   0.779   4.627
 2647SOL    HW210618   0.201   0.696   4.598
 2647SOL    HW310619   0.230   0.844   4.602
 2647SOL    MW410620   0.178   0.777   4.620
 2648SOL     OW10621   4.187   0.786   4.546
 2648SOL    HW210622   4.219   0.697   4.530
 2648SOL    HW310623   4.267   0.837   4.562
 2648SOL    MW410624   4.202   0.781   4.546
 2649SOL     OW10625   0.704   1.346   4.498
 2649SOL    HW210626   0.743   1.433   4.497
 2649SOL    HW310627   0.625   1.355   4.551
 2649SOL    MW410628   0.699   1.358   4.505
 2650SOL     OW10629   1.184   1.949   4.469
 2650SOL    HW210630   1.280   1.953   4.470
 2650SOL    HW310631   1.157   1.997   4.547
 2650SOL    MW410632   1.193   1.956   4.479
 2651SOL     OW10633   4.182   1.211   4.496
 2651SOL    HW210634   4.114   1.144   4.486
 2651SOL    HW310635   4.256   1.164   4.534
 2651SOL    MW410636   4.183   1.196   4.500
 2652SOL     OW10637   0.081   1.635   4.488
 2652SOL    HW210638   0.047   1.643   4.399
 2652SOL    HW310639   0.070   1.722   4.526
 2652SOL    MW410640   0.075   1.648   4.482
 2653SOL     OW10641   0.438   1.664   4.226
 2653SOL    HW210642   0.366   1.625   4.177
 2653SOL    HW310643   0.515   1.615   4.198
 2653SOL    MW410644   0.439   1.653   4.216
 2654SOL     OW10645   0.023   1.898   4.604
 2654SOL    HW210646   0.084   1.950   4.552
 2654SOL    HW310647   0.076   1.865   4.677
 2654SOL    MW410648   0.038   1.901   4.607
 2655SOL     OW10649   4.309   2.315   4.488
 2655SOL    HW210650   4.397   2.343   4.511
 2655SOL    HW310651   4.254   2.391   4.504
 2655SOL    MW410652   4.313   2.329   4.493
 2656SOL     OW10653   0.715   2.934   4.612
 2656SOL    HW210654   0.720   2.860   4.551
 2656SOL    HW310655   0.765   2.905   4.688
 2656SOL    MW410656   0.722   2.920   4.614
 2657SOL     OW10657   0.406   3.000   4.612
 2657SOL    HW210658   0.499   2.995   4.637
 2657SOL    HW310659   0.394   3.090   4.583
 2657SOL    MW410660   0.417   3.011   4.612
 2658SOL     OW10661   0.122   2.358   4.488
 2658SOL    HW210662   0.090   2.379   4.400
 2658SOL    HW310663   0.195   2.419   4.502
 2658SOL    MW410664   0.127   2.369   4.478
 2659SOL     OW10665   4.029   3.551   4.614
 2659SOL    HW210666   3.963   3.486   4.639
 2659SOL    HW310667   4.031   3.613   4.687
 2659SOL    MW410668   4.021   3.551   4.627
 2660SOL     OW10669   0.401   3.254   4.518
 2660SOL    HW210670   0.490   3.286   4.535
 2660SOL    HW310671   0.347   3.333   4.512
 2660SOL    MW410672   0.406   3.268   4.519
 2661SOL     OW10673   4.351   3.860   4.607
 2661SOL    HW210674   4.268   3.891   4.570
 2661SOL    HW310675   4.353   3.767   4.584
 2661SOL    MW410676   4.340   3.852   4.599
 2662SOL     OW10677   4.489   0.039   4.502
 2662SOL    HW210678   4.400   0.018   4.531
 2662SOL    HW310679   4.509   0.123   4.544
 2662SOL    MW410680   4.480   0.047   4.512
 2663SOL     OW10681   3.392   0.337   4.490
 2663SOL    HW210682   3.426   0.412   4.440
 2663SOL    HW310683   3.302   0.326   4.459
 2663SOL    MW410684   3.385   0.346   4.479
 2664SOL     OW10685   3.998   3.732   4.832
 2664SOL    HW210686   3.966   3.649   4.867
 2664SOL    HW310687   3.923   3.791   4.839
 2664SOL    MW410688   3.984   3.729   4.838
 2665SOL     OW10689   3.783   3.920   4.706
 2665SOL    HW210690   3.816   3.850   4.649
 2665SOL    HW310691   3.858   3.977   4.719
 2665SOL    MW410692   3.798   3.918   4.701
 2666SOL     OW10693   0.684   4.557   4.491
 2666SOL    HW210694   0.681   4.524   4.401
 2666SOL    HW310695   0.698   4.479   4.545
 2666SOL    MW410696   0.685   4.542   4.486
 2667SOL     OW10697   3.958   0.622   4.633
 2667SOL    HW210698   3.888   0.686   4.623
 2667SOL    HW310699   4.037   0.667   4.603
 2667SOL    MW410700   3.960   0.636   4.628
 2668SOL     OW10701   1.091   0.901   4.627
 2668SOL    HW210702   1.004   0.935   4.607
 2668SOL    HW310703   1.148   0.978   4.625
 2668SOL    MW410704   1.087   0.916   4.624
 2669SOL     OW10705   0.804   0.346   4.658
 2669SOL    HW210706   0.824   0.260   4.621
 2669SOL    HW310707   0.886   0.375   4.697
 2669SOL    MW410708   0.817   0.339   4.658
 2670SOL     OW10709   0.814   0.919   4.509
 2670SOL    HW210710   0.817   0.886   4.420
 2670SOL    HW310711   0.749   0.865   4.553
 2670SOL    MW410712   0.806   0.908   4.503
 2671SOL     OW10713   0.378   0.966   4.521
 2671SOL    HW210714   0.447   0.928   4.576
 2671SOL    HW310715   0.386   0.919   4.438
 2671SOL    MW410716   0.388   0.955   4.517
 2672SOL     OW10717   2.125   1.147   4.505
 2672SOL    HW210718   2.120   1.200   4.426
 2672SOL    HW310719   2.210   1.169   4.544
 2672SOL    MW410720   2.136   1.157   4.500
 2673SOL     OW10721   0.357   1.624   4.494
 2673SOL    HW210722   0.263   1.635   4.484
 2673SOL    HW310723   0.393   1.641   4.407
 2673SOL    MW410724   0.350   1.628   4.481
 2674SOL     OW10725   1.375   1.049   4.580
 2674SOL    HW210726   1.353   0.969   4.533
 2674SOL    HW310727   1.319   1.116   4.540
 2674SOL    MW410728   1.365   1.047   4.568
 2675SOL     OW10729   0.843   1.604   4.494
 2675SOL    HW210730   0.800   1.683   4.526
 2675SOL    HW310731   0.936   1.625   4.493
 2675SOL    MW410732   0.849   1.617   4.498
 2676SOL     OW10733   0.739   2.062   4.487
 2676SOL    HW210734   0.793   2.136   4.516
 2676SOL    HW310735   0.766   1.989   4.544
 2676SOL    MW410736   0.750   2.062   4.498
 2677SOL     OW10737   1.102   1.693   4.492
 2677SOL    HW210738   1.178   1.638   4.512
 2677SOL    HW310739   1.138   1.781   4.481
 2677SOL    MW410740   1.117   1.697   4.493
 2678SOL     OW10741   0.516   2.055   4.647
 2678SOL    HW210742   0.595   2.060   4.594
 2678SOL    HW310743   0.501   2.145   4.676
 2678SOL    MW410744   0.524   2.068   4.644
 2679SOL     OW10745   0.983   2.611   4.704
 2679SOL    HW210746   0.991   2.651   4.618
 2679SOL    HW310747   0.889   2.611   4.722
 2679SOL    MW410748   0.972   2.616   4.695
 2680SOL     OW10749   0.695   2.500   4.596
 2680SOL    HW210750   0.615   2.451   4.617
 2680SOL    HW310751   0.756   2.434   4.564
 2680SOL    MW410752   0.692   2.485   4.595
 2681SOL     OW10753   0.826   3.174   4.484
 2681SOL    HW210754   0.773   3.250   4.508
 2681SOL    HW310755   0.772   3.098   4.505
 2681SOL    MW410756   0.812   3.174   4.490
 2682SOL     OW10757   0.653   3.366   4.570
 2682SOL    HW210758   0.669   3.458   4.550
 2682SOL    HW310759   0.668   3.359   4.664
 2682SOL    MW410760   0.657   3.377   4.580
 2683SOL     OW10761   1.342   0.063   4.560
 2683SOL    HW210762   1.323  -0.031   4.563
 2683SOL    HW310763   1.431   0.071   4.592
 2683SOL    MW410764   1.351   0.051   4.564
 2684SOL     OW10765   0.338   2.522   4.516
 2684SOL    HW210766   0.362   2.522   4.423
 2684SOL    HW310767   0.301   2.608   4.531
 2684SOL    MW410768   0.337   2.533   4.506
 2685SOL     OW10769   4.462   3.331   4.530
 2685SOL    HW210770   4.409   3.409   4.546
 2685SOL    HW310771   4.442   3.305   4.440
 2685SOL    MW410772   4.453   3.338   4.520
 2686SOL     OW10773   1.342   3.444   4.584
 2686SOL    HW210774   1.422   3.427   4.534
 2686SOL    HW310775   1.322   3.361   4.627
 2686SOL    MW410776   1.350   3.431   4.583
 2687SOL     OW10777   0.084   4.237   4.546
 2687SOL    HW210778   0.084   4.144   4.521
 2687SOL    HW310779  -0.008   4.256   4.567
 2687SOL    MW410780   0.072   4.227   4.545
 2688SOL     OW10781   0.070   3.971   4.458
 2688SOL    HW210782   0.138   3.903   4.460
 2688SOL    HW310783   0.003   3.939   4.518
 2688SOL    MW410784   0.070   3.958   4.466
 2689SOL     OW10785   0.217   4.518   4.516
 2689SOL    HW210786   0.135   4.568   4.518
 2689SOL    HW310787   0.191   4.429   4.542
 2689SOL    MW410788   0.203   4.513   4.520
 2690SOL     OW10789   0.448   0.319   4.579
 2690SOL    HW210790   0.543   0.324   4.562
 2690SOL    HW310791   0.428   0.226   4.574
 2690SOL    MW410792   0.458   0.308   4.576
 2691SOL     OW10793   1.285   4.433   4.549
 2691SOL    HW210794   1.370   4.389   4.544
 2691SOL    HW310795   1.239   4.386   4.619
 2691SOL    MW410796   1.290   4.421   4.557
 2692SOL     OW10797   0.709   0.557   4.513
 2692SOL    HW210798   0.686   0.524   4.426
 2692SOL    HW310799   0.723   0.478   4.565
 2692SOL    MW410800   0.708   0.542   4.509
 2693SOL     OW10801   1.301   0.819   4.449
 2693SOL    HW210802   1.289   0.817   4.354
 2693SOL    HW310803   1.212   0.810   4.484
 2693SOL    MW410804   1.287   0.818   4.441
 2694SOL     OW10805   1.579   0.862   4.612
 2694SOL    HW210806   1.520   0.787   4.607
 2694SOL    HW310807   1.521   0.938   4.614
 2694SOL    MW410808   1.564   0.862   4.612
 2695SOL     OW10809   0.271   1.222   4.501
 2695SOL    HW210810   0.318   1.143   4.526
 2695SOL    HW310811   0.307   1.291   4.558
 2695SOL    MW410812   0.282   1.221   4.512
 2696SOL     OW10813   0.981   1.864   4.832
 2696SOL    HW210814   1.039   1.789   4.836
 2696SOL    HW310815   1.033   1.932   4.788
 2696SOL    MW410816   0.996   1.863   4.826
 2697SOL     OW10817   0.937   1.184   4.540
 2697SOL    HW210818   0.867   1.247   4.552
 2697SOL    HW310819   0.893   1.104   4.512
 2697SOL    MW410820   0.922   1.182   4.538
 2698SOL     OW10821   1.856   1.119   4.579
 2698SOL    HW210822   1.872   1.030   4.609
 2698SOL    HW310823   1.944   1.155   4.563
 2698SOL    MW410824   1.870   1.112   4.581
 2699SOL     OW10825   1.195   1.255   4.470
 2699SOL    HW210826   1.105   1.236   4.493
 2699SOL    HW310827   1.208   1.347   4.496
 2699SOL    MW410828   1.185   1.265   4.476
 2700SOL     OW10829   1.100   2.348   4.666
 2700SOL    HW210830   1.079   2.438   4.693
 2700SOL    HW310831   1.176   2.357   4.609
 2700SOL    MW410832   1.107   2.361   4.662
 2701SOL     OW10833   1.573   2.474   4.836
 2701SOL    HW210834   1.640   2.524   4.882
 2701SOL    HW310835   1.513   2.540   4.802
 2701SOL    MW410836   1.574   2.489   4.838
 2702SOL     OW10837   1.468   3.003   4.568
 2702SOL    HW210838   1.489   2.912   4.547
 2702SOL    HW310839   1.551   3.040   4.599
 2702SOL    MW410840   1.482   2.996   4.570
 2703SOL     OW10841   1.603   3.349   4.500
 2703SOL    HW210842   1.649   3.281   4.549
 2703SOL    HW310843   1.628   3.334   4.408
 2703SOL    MW410844   1.612   3.338   4.494
 2704SOL     OW10845   0.724   2.719   4.429
 2704SOL    HW210846   0.820   2.721   4.436
 2704SOL    HW310847   0.698   2.645   4.483
 2704SOL    MW410848   0.733   2.709   4.437
 2705SOL     OW10849   0.693   4.302   4.636
 2705SOL    HW210850   0.737   4.223   4.602
 2705SOL    HW310851   0.600   4.282   4.630
 2705SOL    MW410852   0.687   4.289   4.631
 2706SOL     OW10853   0.995   2.749   4.471
 2706SOL    HW210854   1.042   2.757   4.388
 2706SOL    HW310855   0.991   2.839   4.506
 2706SOL    MW410856   1.001   2.762   4.465
 2707SOL     OW10857   0.911   2.878   4.809
 2707SOL    HW210858   0.949   2.791   4.800
 2707SOL    HW310859   0.963   2.933   4.751
 2707SOL    MW410860   0.923   2.874   4.800
 2708SOL     OW10861   1.631   3.634   4.486
 2708SOL    HW210862   1.724   3.654   4.487
 2708SOL    HW310863   1.622   3.557   4.541
 2708SOL    MW410864   1.642   3.627   4.493
 2709SOL     OW10865   0.465   3.859   4.523
 2709SOL    HW210866   0.432   3.936   4.569
 2709SOL    HW310867   0.386   3.815   4.491
 2709SOL    MW410868   0.450   3.863   4.525
 2710SOL     OW10869   0.227   3.740   4.428
 2710SOL    HW210870   0.246   3.659   4.475
 2710SOL    HW310871   0.216   3.712   4.336
 2710SOL    MW410872   0.228   3.725   4.422
 2711SOL     OW10873   0.841   0.112   4.522
 2711SOL    HW210874   0.891   0.112   4.441
 2711SOL    HW310875   0.784   0.035   4.516
 2711SOL    MW410876   0.840   0.102   4.511
 2712SOL     OW10877   0.423   4.136   4.549
 2712SOL    HW210878   0.328   4.137   4.543
 2712SOL    HW310879   0.452   4.109   4.462
 2712SOL    MW410880   0.415   4.132   4.537
 2713SOL     OW10881   2.279   3.934   4.572
 2713SOL    HW210882   2.261   3.924   4.478
 2713SOL    HW310883   2.209   3.884   4.615
 2713SOL    MW410884   2.268   3.926   4.565
 2714SOL     OW10885   1.796   4.485   4.588
 2714SOL    HW210886   1.848   4.409   4.561
 2714SOL    HW310887   1.708   4.450   4.603
 2714SOL    MW410888   1.791   4.470   4.586
 2715SOL     OW10889   1.551   4.350   4.533
 2715SOL    HW210890   1.537   4.255   4.536
 2715SOL    HW310891   1.551   4.371   4.440
 2715SOL    MW410892   1.550   4.340   4.521
 2716SOL     OW10893   1.023   0.633   4.578
 2716SOL    HW210894   0.931   0.644   4.556
 2716SOL    HW310895   1.046   0.712   4.626
 2716SOL    MW410896   1.014   0.645   4.581
 2717SOL     OW10897   1.844   0.102   4.533
 2717SOL    HW210898   1.854   0.007   4.544
 2717SOL    HW310899   1.756   0.121   4.566
 2717SOL    MW410900   1.834   0.092   4.539
 2718SOL     OW10901   1.200   0.449   4.515
 2718SOL    HW210902   1.138   0.517   4.541
 2718SOL    HW310903   1.164   0.369   4.553
 2718SOL    MW410904   1.187   0.447   4.523
 2719SOL     OW10905   1.647   1.711   4.489
 2719SOL    HW210906   1.624   1.635   4.542
 2719SOL    HW310907   1.742   1.703   4.477
 2719SOL    MW410908   1.657   1.700   4.495
 2720SOL     OW10909   0.600   0.809   4.659
 2720SOL    HW210910   0.612   0.789   4.752
 2720SOL    HW310911   0.615   0.726   4.614
 2720SOL    MW410912   0.603   0.796   4.665
 2721SOL     OW10913   1.631   0.426   4.505
 2721SOL    HW210914   1.718   0.466   4.508
 2721SOL    HW310915   1.571   0.499   4.520
 2721SOL    MW410916   1.635   0.441   4.507
 2722SOL     OW10917   1.608   1.241   4.531
 2722SOL    HW210918   1.539   1.180   4.557
 2722SOL    HW310919   1.688   1.188   4.528
 2722SOL    MW410920   1.610   1.226   4.534
 2723SOL     OW10921   1.296   1.504   4.514
 2723SOL    HW210922   1.368   1.508   4.577
 2723SOL    HW310923   1.336   1.530   4.431
 2723SOL    MW410924   1.311   1.508   4.511
 2724SOL     OW10925   1.392   2.627   4.689
 2724SOL    HW210926   1.357   2.550   4.643
 2724SOL    HW310927   1.327   2.646   4.757
 2724SOL    MW410928   1.379   2.619   4.692
 2725SOL     OW10929   2.272   2.589   4.307
 2725SOL    HW210930   2.217   2.540   4.246
 2725SOL    HW310931   2.217   2.662   4.336
 2725SOL    MW410932   2.257   2.592   4.303
 2726SOL     OW10933   0.879   2.310   4.525
 2726SOL    HW210934   0.957   2.337   4.573
 2726SOL    HW310935   0.895   2.340   4.435
 2726SOL    MW410936   0.892   2.318   4.519
 2727SOL     OW10937   1.394   3.836   4.472
 2727SOL    HW210938   1.460   3.767   4.481
 2727SOL    HW310939   1.311   3.790   4.482
 2727SOL    MW410940   1.392   3.821   4.475
 2728SOL     OW10941   1.338   2.462   4.247
 2728SOL    HW210942   1.323   2.540   4.193
 2728SOL    HW310943   1.423   2.430   4.219
 2728SOL    MW410944   1.347   2.468   4.236
 2729SOL     OW10945   1.335   2.422   4.509
 2729SOL    HW210946   1.344   2.450   4.418
 2729SOL    HW310947   1.402   2.355   4.520
 2729SOL    MW410948   1.345   2.417   4.498
 2730SOL     OW10949   1.247   3.176   4.556
 2730SOL    HW210950   1.321   3.116   4.570
 2730SOL    HW310951   1.266   3.219   4.473
 2730SOL    MW410952   1.260   3.174   4.547
 2731SOL     OW10953   1.019   3.012   4.585
 2731SOL    HW210954   1.104   3.054   4.576
 2731SOL    HW310955   0.956   3.080   4.560
 2731SOL    MW410956   1.022   3.027   4.580
 2732SOL     OW10957   0.638   3.638   4.528
 2732SOL    HW210958   0.572   3.702   4.556
 2732SOL    HW310959   0.718   3.690   4.516
 2732SOL    MW410960   0.640   3.654   4.530
 2733SOL     OW10961   2.308   3.356   4.635
 2733SOL    HW210962   2.220   3.369   4.602
 2733SOL    HW310963   2.340   3.278   4.589
 2733SOL    MW410964   2.301   3.347   4.625
 2734SOL     OW10965   2.037   3.361   4.544
 2734SOL    HW210966   2.026   3.287   4.603
 2734SOL    HW310967   2.020   3.326   4.457
 2734SOL    MW410968   2.033   3.347   4.540
 2735SOL     OW10969   2.381   3.105   4.497
 2735SOL    HW210970   2.332   3.028   4.525
 2735SOL    HW310971   2.473   3.080   4.506
 2735SOL    MW410972   2.386   3.092   4.502
 2736SOL     OW10973   0.876   3.763   4.466
 2736SOL    HW210974   0.966   3.729   4.472
 2736SOL    HW310975   0.884   3.842   4.412
 2736SOL    MW410976   0.889   3.769   4.460
 2737SOL     OW10977   1.791   4.048   4.515
 2737SOL    HW210978   1.777   4.016   4.426
 2737SOL    HW310979   1.861   3.994   4.550
 2737SOL    MW410980   1.799   4.037   4.508
 2738SOL     OW10981   2.033   0.285   4.622
 2738SOL    HW210982   1.975   0.213   4.594
 2738SOL    HW310983   2.121   0.248   4.614
 2738SOL    MW410984   2.037   0.270   4.617
 2739SOL     OW10985   1.104   0.215   4.632
 2739SOL    HW210986   1.026   0.160   4.639
 2739SOL    HW310987   1.176   0.153   4.621
 2739SOL    MW410988   1.103   0.199   4.632
 2740SOL     OW10989   1.610   0.185   4.644
 2740SOL    HW210990   1.667   0.207   4.718
 2740SOL    HW310991   1.602   0.267   4.595
 2740SOL    MW410992   1.616   0.199   4.647
 2741SOL     OW10993   2.480   4.645   4.631
 2741SOL    HW210994   2.450   4.555   4.617
 2741SOL    HW310995   2.406   4.700   4.603
 2741SOL    MW410996   2.466   4.640   4.626
 2742SOL     OW10997   1.853   0.811   4.564
 2742SOL    HW210998   1.763   0.815   4.594
 2742SOL    HW310999   1.850   0.843   4.474
 2742SOL    MW411000   1.841   0.816   4.556
 2743SOL     OW11001   1.430   0.612   4.562
 2743SOL    HW211002   1.378   0.681   4.522
 2743SOL    HW311003   1.371   0.537   4.567
 2743SOL    MW411004   1.415   0.611   4.557
 2744SOL     OW11005   1.917   1.728   4.470
 2744SOL    HW211006   1.972   1.658   4.506
 2744SOL    HW311007   1.902   1.700   4.379
 2744SOL    MW411008   1.923   1.715   4.463
 2745SOL     OW11009   0.749   1.840   4.649
 2745SOL    HW211010   0.817   1.845   4.716
 2745SOL    HW311011   0.670   1.812   4.696
 2745SOL    MW411012   0.747   1.837   4.664
 2746SOL     OW11013   1.557   1.496   4.662
 2746SOL    HW211014   1.598   1.419   4.623
 2746SOL    HW311015   1.594   1.502   4.749
 2746SOL    MW411016   1.567   1.487   4.668
 2747SOL     OW11017   1.145   2.073   4.723
 2747SOL    HW211018   1.239   2.069   4.737
 2747SOL    HW311019   1.126   2.167   4.715
 2747SOL    MW411020   1.155   2.085   4.723
 2748SOL     OW11021   1.460   1.921   4.472
 2748SOL    HW211022   1.488   1.969   4.395
 2748SOL    HW311023   1.529   1.855   4.485
 2748SOL    MW411024   1.473   1.918   4.464
 2749SOL     OW11025   2.108   2.432   4.132
 2749SOL    HW211026   2.074   2.383   4.058
 2749SOL    HW311027   2.085   2.379   4.209
 2749SOL    MW411028   2.101   2.418   4.132
 2750SOL     OW11029   1.413   2.044   4.734
 2750SOL    HW211030   1.415   1.987   4.658
 2750SOL    HW311031   1.456   2.124   4.706
 2750SOL    MW411032   1.419   2.047   4.720
 2751SOL     OW11033   2.665   3.078   4.548
 2751SOL    HW211034   2.667   3.138   4.622
 2751SOL    HW311035   2.729   3.010   4.571
 2751SOL    MW411036   2.674   3.077   4.561
 2752SOL     OW11037   1.743   3.107   4.618
 2752SOL    HW211038   1.768   3.060   4.538
 2752SOL    HW311039   1.822   3.104   4.673
 2752SOL    MW411040   1.757   3.101   4.614
 2753SOL     OW11041   2.006   3.865   4.655
 2753SOL    HW211042   1.996   3.860   4.750
 2753SOL    HW311043   1.982   3.778   4.623
 2753SOL    MW411044   2.002   3.853   4.663
 2754SOL     OW11045   2.800   3.030   4.908
 2754SOL    HW211046   2.882   3.035   4.957
 2754SOL    HW311047   2.825   2.998   4.821
 2754SOL    MW411048   2.814   3.026   4.903
 2755SOL     OW11049   2.210   2.726   4.967
 2755SOL    HW211050   2.278   2.758   5.027
 2755SOL    HW311051   2.196   2.797   4.905
 2755SOL    MW411052   2.217   2.740   4.967
 2756SOL     OW11053   2.786   3.907   4.521
 2756SOL    HW211054   2.747   3.937   4.439
 2756SOL    HW311055   2.711   3.879   4.574
 2756SOL    MW411056   2.771   3.907   4.517
 2757SOL     OW11057   2.546   3.841   4.631
 2757SOL    HW211058   2.526   3.753   4.598
 2757SOL    HW311059   2.467   3.892   4.613
 2757SOL    MW411060   2.533   3.836   4.624
 2758SOL     OW11061   2.492   3.558   4.535
 2758SOL    HW211062   2.423   3.501   4.568
 2758SOL    HW311063   2.472   3.567   4.442
 2758SOL    MW411064   2.480   3.552   4.527
 2759SOL     OW11065   1.906   3.606   4.499
 2759SOL    HW211066   1.923   3.513   4.514
 2759SOL    HW311067   1.953   3.626   4.418
 2759SOL    MW411068   1.915   3.597   4.490
 2760SOL     OW11069   1.992   4.247   4.480
 2760SOL    HW211070   1.938   4.168   4.491
 2760SOL    HW311071   2.077   4.224   4.518
 2760SOL    MW411072   1.996   4.233   4.486
 2761SOL     OW11073   1.174   3.670   4.485
 2761SOL    HW211074   1.209   3.603   4.543
 2761SOL    HW311075   1.155   3.624   4.404
 2761SOL    MW411076   1.177   3.655   4.482
 2762SOL     OW11077   2.283   0.188   4.543
 2762SOL    HW211078   2.257   0.163   4.454
 2762SOL    HW311079   2.327   0.272   4.532
 2762SOL    MW411080   2.285   0.195   4.530
 2763SOL     OW11081   2.411   0.717   4.517
 2763SOL    HW211082   2.483   0.780   4.512
 2763SOL    HW311083   2.334   0.771   4.536
 2763SOL    MW411084   2.410   0.733   4.519
 2764SOL     OW11085   2.091   1.533   4.510
 2764SOL    HW211086   2.114   1.450   4.469
 2764SOL    HW311087   2.173   1.582   4.515
 2764SOL    MW411088   2.105   1.529   4.505
 2765SOL     OW11089   2.726   4.664   4.489
 2765SOL    HW211090   2.639   4.647   4.526
 2765SOL    HW311091   2.708   4.694   4.400
 2765SOL    MW411092   2.712   4.666   4.482
 2766SOL     OW11093   2.911   0.783   4.318
 2766SOL    HW211094   2.917   0.688   4.303
 2766SOL    HW311095   2.972   0.821   4.255
 2766SOL    MW411096   2.920   0.775   4.308
 2767SOL     OW11097   3.374   0.938   4.425
 2767SOL    HW211098   3.306   0.929   4.492
 2767SOL    HW311099   3.447   0.981   4.470
 2767SOL    MW411100   3.374   0.943   4.440
 2768SOL     OW11101   2.156   0.864   4.513
 2768SOL    HW211102   2.154   0.959   4.522
 2768SOL    HW311103   2.068   0.835   4.535
 2768SOL    MW411104   2.144   0.873   4.517
 2769SOL     OW11105   2.604   1.334   4.502
 2769SOL    HW211106   2.596   1.424   4.534
 2769SOL    HW311107   2.696   1.312   4.517
 2769SOL    MW411108   2.615   1.343   4.508
 2770SOL     OW11109   2.598   1.647   4.499
 2770SOL    HW211110   2.641   1.651   4.413
 2770SOL    HW311111   2.633   1.722   4.547
 2770SOL    MW411112   2.608   1.657   4.494
 2771SOL     OW11113   2.323   1.684   4.485
 2771SOL    HW211114   2.418   1.677   4.483
 2771SOL    HW311115   2.297   1.682   4.393
 2771SOL    MW411116   2.332   1.682   4.473
 2772SOL     OW11117   2.328   2.184   4.514
 2772SOL    HW211118   2.365   2.255   4.565
 2772SOL    HW311119   2.275   2.227   4.447
 2772SOL    MW411120   2.326   2.199   4.512
 2773SOL     OW11121   2.463   1.933   4.506
 2773SOL    HW211122   2.412   1.852   4.506
 2773SOL    HW311123   2.399   2.000   4.531
 2773SOL    MW411124   2.448   1.931   4.509
 2774SOL     OW11125   2.680   2.331   4.462
 2774SOL    HW211126   2.598   2.371   4.489
 2774SOL    HW311127   2.684   2.345   4.368
 2774SOL    MW411128   2.670   2.338   4.453
 2775SOL     OW11129   1.533   2.734   4.493
 2775SOL    HW211130   1.575   2.657   4.455
 2775SOL    HW311131   1.471   2.698   4.557
 2775SOL    MW411132   1.530   2.719   4.497
 2776SOL     OW11133   2.229   2.929   4.765
 2776SOL    HW211134   2.292   3.000   4.771
 2776SOL    HW311135   2.224   2.909   4.671
 2776SOL    MW411136   2.236   2.936   4.753
 2777SOL     OW11137   2.750   3.441   4.636
 2777SOL    HW211138   2.707   3.369   4.682
 2777SOL    HW311139   2.679   3.495   4.604
 2777SOL    MW411140   2.735   3.439   4.638
 2778SOL     OW11141   2.361   3.178   4.871
 2778SOL    HW211142   2.350   3.215   4.958
 2778SOL    HW311143   2.347   3.251   4.811
 2778SOL    MW411144   2.358   3.193   4.875
 2779SOL     OW11145   1.508   4.075   4.565
 2779SOL    HW211146   1.472   3.989   4.546
 2779SOL    HW311147   1.603   4.064   4.559
 2779SOL    MW411148   1.516   4.062   4.562
 2780SOL     OW11149   2.744   4.364   4.632
 2780SOL    HW211150   2.655   4.335   4.612
 2780SOL    HW311151   2.759   4.438   4.574
 2780SOL    MW411152   2.734   4.370   4.622
 2781SOL     OW11153   2.030   3.116   4.695
 2781SOL    HW211154   2.040   3.063   4.616
 2781SOL    HW311155   2.080   3.070   4.762
 2781SOL    MW411156   2.037   3.103   4.693
 2782SOL     OW11157   3.297   3.889   4.510
 2782SOL    HW211158   3.211   3.927   4.530
 2782SOL    HW311159   3.284   3.795   4.522
 2782SOL    MW411160   3.284   3.882   4.514
 2783SOL     OW11161   3.053   4.005   4.505
 2783SOL    HW211162   2.972   3.957   4.520
 2783SOL    HW311163   3.028   4.097   4.513
 2783SOL    MW411164   3.039   4.011   4.508
 2784SOL     OW11165   2.232   4.203   4.616
 2784SOL    HW211166   2.252   4.112   4.596
 2784SOL    HW311167   2.241   4.209   4.711
 2784SOL    MW411168   2.236   4.192   4.626
 2785SOL     OW11169   2.465   4.355   4.545
 2785SOL    HW211170   2.382   4.317   4.572
 2785SOL    HW311171   2.467   4.343   4.450
 2785SOL    MW411172   2.454   4.348   4.536
 2786SOL     OW11173   2.897   0.503   4.281
 2786SOL    HW211174   2.818   0.479   4.234
 2786SOL    HW311175   2.897   0.446   4.358
 2786SOL    MW411176   2.887   0.492   4.285
 2787SOL     OW11177   2.868   0.273   4.467
 2787SOL    HW211178   2.844   0.180   4.462
 2787SOL    HW311179   2.808   0.310   4.532
 2787SOL    MW411180   2.857   0.265   4.475
 2788SOL     OW11181   2.656   0.154   4.789
 2788SOL    HW211182   2.719   0.087   4.817
 2788SOL    HW311183   2.586   0.105   4.747
 2788SOL    MW411184   2.655   0.139   4.787
 2789SOL     OW11185   2.906   1.001   4.533
 2789SOL    HW211186   2.979   0.960   4.579
 2789SOL    HW311187   2.888   0.942   4.460
 2789SOL    MW411188   2.913   0.988   4.529
 2790SOL     OW11189   3.385   0.427   4.757
 2790SOL    HW211190   3.383   0.387   4.670
 2790SOL    HW311191   3.457   0.489   4.753
 2790SOL    MW411192   3.394   0.430   4.745
 2791SOL     OW11193   1.892   0.538   4.505
 2791SOL    HW211194   1.936   0.488   4.574
 2791SOL    HW311195   1.907   0.629   4.528
 2791SOL    MW411196   1.899   0.543   4.517
 2792SOL     OW11197   2.597   0.912   4.513
 2792SOL    HW211198   2.648   0.891   4.434
 2792SOL    HW311199   2.662   0.915   4.583
 2792SOL    MW411200   2.612   0.909   4.512
 2793SOL     OW11201   3.148   1.365   4.560
 2793SOL    HW211202   3.062   1.329   4.540
 2793SOL    HW311203   3.190   1.374   4.474
 2793SOL    MW411204   3.142   1.362   4.546
 2794SOL     OW11205   3.082   1.634   4.502
 2794SOL    HW211206   3.001   1.657   4.547
 2794SOL    HW311207   3.097   1.542   4.524
 2794SOL    MW411208   3.073   1.625   4.510
 2795SOL     OW11209   2.882   1.679   4.684
 2795SOL    HW211210   2.826   1.750   4.654
 2795SOL    HW311211   2.829   1.632   4.749
 2795SOL    MW411212   2.868   1.682   4.689
 2796SOL     OW11213   2.732   1.892   4.596
 2796SOL    HW211214   2.787   1.965   4.568
 2796SOL    HW311215   2.642   1.924   4.586
 2796SOL    MW411216   2.727   1.906   4.591
 2797SOL     OW11217   2.861   2.132   4.515
 2797SOL    HW211218   2.789   2.195   4.519
 2797SOL    HW311219   2.871   2.115   4.421
 2797SOL    MW411220   2.853   2.138   4.503
 2798SOL     OW11221   3.106   2.155   4.643
 2798SOL    HW211222   3.069   2.131   4.728
 2798SOL    HW311223   3.041   2.125   4.580
 2798SOL    MW411224   3.092   2.148   4.646
 2799SOL     OW11225   2.319   2.656   4.674
 2799SOL    HW211226   2.313   2.683   4.765
 2799SOL    HW311227   2.297   2.735   4.624
 2799SOL    MW411228   2.315   2.670   4.679
 2800SOL     OW11229   3.871   3.324   4.713
 2800SOL    HW211230   3.935   3.280   4.658
 2800SOL    HW311231   3.786   3.305   4.673
 2800SOL    MW411232   3.868   3.316   4.701
 2801SOL     OW11233   2.653   2.661   4.410
 2801SOL    HW211234   2.597   2.608   4.466
 2801SOL    HW311235   2.601   2.739   4.391
 2801SOL    MW411236   2.639   2.664   4.415
 2802SOL     OW11237   2.648   3.205   4.779
 2802SOL    HW211238   2.564   3.171   4.811
 2802SOL    HW311239   2.714   3.160   4.831
 2802SOL    MW411240   2.645   3.195   4.790
 2803SOL     OW11241   2.885   2.946   4.653
 2803SOL    HW211242   2.959   2.998   4.621
 2803SOL    HW311243   2.897   2.860   4.613
 2803SOL    MW411244   2.896   2.942   4.644
 2804SOL     OW11245   3.015   0.178   4.912
 2804SOL    HW211246   2.956   0.107   4.888
 2804SOL    HW311247   2.974   0.256   4.875
 2804SOL    MW411248   3.002   0.179   4.904
 2805SOL     OW11249   3.804   4.274   4.847
 2805SOL    HW211250   3.720   4.276   4.799
 2805SOL    HW311251   3.817   4.364   4.875
 2805SOL    MW411252   3.794   4.286   4.844
 2806SOL     OW11253   3.910   3.766   4.488
 2806SOL    HW211254   3.953   3.687   4.522
 2806SOL    HW311255   3.843   3.732   4.429
 2806SOL    MW411256   3.907   3.751   4.485
 2807SOL     OW11257   2.915   3.632   4.495
 2807SOL    HW211258   2.880   3.563   4.551
 2807SOL    HW311259   2.860   3.708   4.514
 2807SOL    MW411260   2.903   3.633   4.505
 2808SOL     OW11261   2.989   4.289   4.504
 2808SOL    HW211262   2.911   4.281   4.560
 2808SOL    HW311263   3.037   4.362   4.541
 2808SOL    MW411264   2.985   4.298   4.517
 2809SOL     OW11265   3.138   0.253   4.431
 2809SOL    HW211266   3.046   0.255   4.454
 2809SOL    HW311267   3.159   0.160   4.424
 2809SOL    MW411268   3.129   0.241   4.433
 2810SOL     OW11269   3.394   0.754   4.894
 2810SOL    HW211270   3.467   0.719   4.843
 2810SOL    HW311271   3.387   0.845   4.866
 2810SOL    MW411272   3.402   0.761   4.884
 2811SOL     OW11273   2.423   0.436   4.547
 2811SOL    HW211274   2.502   0.423   4.599
 2811SOL    HW311275   2.413   0.531   4.541
 2811SOL    MW411276   2.432   0.447   4.553
 2812SOL     OW11277   2.398   1.131   4.565
 2812SOL    HW211278   2.436   1.044   4.550
 2812SOL    HW311279   2.474   1.189   4.570
 2812SOL    MW411280   2.413   1.127   4.564
 2813SOL     OW11281   2.878   4.633   4.762
 2813SOL    HW211282   2.863   4.540   4.778
 2813SOL    HW311283   2.866   4.644   4.668
 2813SOL    MW411284   2.874   4.622   4.752
 2814SOL     OW11285   2.932   0.475   4.869
 2814SOL    HW211286   3.011   0.521   4.842
 2814SOL    HW311287   2.904   0.520   4.950
 2814SOL    MW411288   2.939   0.487   4.876
 2815SOL     OW11289   3.339   1.318   4.755
 2815SOL    HW211290   3.277   1.347   4.689
 2815SOL    HW311291   3.331   1.381   4.826
 2815SOL    MW411292   3.330   1.330   4.755
 2816SOL     OW11293   2.878   1.280   4.503
 2816SOL    HW211294   2.893   1.187   4.517
 2816SOL    HW311295   2.872   1.290   4.408
 2816SOL    MW411296   2.879   1.269   4.492
 2817SOL     OW11297   4.022   0.967   4.426
 2817SOL    HW211298   4.019   0.945   4.332
 2817SOL    HW311299   4.085   0.905   4.463
 2817SOL    MW411300   4.030   0.956   4.418
 2818SOL     OW11301   3.534   1.376   4.541
 2818SOL    HW211302   3.549   1.469   4.552
 2818SOL    HW311303   3.483   1.350   4.618
 2818SOL    MW411304   3.530   1.385   4.552
 2819SOL     OW11305   3.307   1.713   4.652
 2819SOL    HW211306   3.308   1.809   4.660
 2819SOL    HW311307   3.223   1.693   4.611
 2819SOL    MW411308   3.296   1.723   4.648
 2820SOL     OW11309   3.319   1.990   4.591
 2820SOL    HW211310   3.242   2.038   4.621
 2820SOL    HW311311   3.323   2.007   4.497
 2820SOL    MW411312   3.310   1.998   4.582
 2821SOL     OW11313   3.560   1.649   4.559
 2821SOL    HW211314   3.478   1.682   4.596
 2821SOL    HW311315   3.554   1.669   4.466
 2821SOL    MW411316   3.548   1.656   4.552
 2822SOL     OW11317   2.904   2.700   4.529
 2822SOL    HW211318   2.823   2.658   4.501
 2822SOL    HW311319   2.963   2.628   4.549
 2822SOL    MW411320   2.901   2.685   4.528
 2823SOL     OW11321   3.372   2.620   4.580
 2823SOL    HW211322   3.295   2.563   4.571
 2823SOL    HW311323   3.336   2.709   4.577
 2823SOL    MW411324   3.357   2.624   4.578
 2824SOL     OW11325   3.111   2.475   4.566
 2824SOL    HW211326   3.125   2.481   4.471
 2824SOL    HW311327   3.096   2.382   4.582
 2824SOL    MW411328   3.111   2.464   4.555
 2825SOL     OW11329   3.770   3.042   4.600
 2825SOL    HW211330   3.856   3.085   4.603
 2825SOL    HW311331   3.790   2.949   4.590
 2825SOL    MW411332   3.784   3.035   4.599
 2826SOL     OW11333   3.104   3.099   4.585
 2826SOL    HW211334   3.147   3.184   4.580
 2826SOL    HW311335   3.175   3.036   4.576
 2826SOL    MW411336   3.119   3.102   4.583
 2827SOL     OW11337   3.525   3.135   4.492
 2827SOL    HW211338   3.554   3.176   4.410
 2827SOL    HW311339   3.606   3.110   4.536
 2827SOL    MW411340   3.540   3.137   4.487
 2828SOL     OW11341   3.887   2.786   4.541
 2828SOL    HW211342   3.981   2.806   4.542
 2828SOL    HW311343   3.882   2.693   4.564
 2828SOL    MW411344   3.899   2.776   4.544
 2829SOL     OW11345   3.924   3.497   4.950
 2829SOL    HW211346   3.894   3.444   4.875
 2829SOL    HW311347   3.910   3.441   5.026
 2829SOL    MW411348   3.918   3.482   4.950
 2830SOL     OW11349   3.581   4.311   4.638
 2830SOL    HW211350   3.666   4.342   4.609
 2830SOL    HW311351   3.580   4.218   4.613
 2830SOL    MW411352   3.592   4.303   4.631
 2831SOL     OW11353   3.124   4.525   4.613
 2831SOL    HW211354   3.108   4.541   4.706
 2831SOL    HW311355   3.215   4.498   4.608
 2831SOL    MW411356   3.134   4.524   4.624
 2832SOL     OW11357   3.277   0.187   4.823
 2832SOL    HW211358   3.192   0.199   4.865
 2832SOL    HW311359   3.311   0.276   4.812
 2832SOL    MW411360   3.270   0.200   4.827
 2833SOL     OW11361   3.385   4.488   4.514
 2833SOL    HW211362   3.446   4.424   4.550
 2833SOL    HW311363   3.409   4.571   4.555
 2833SOL    MW411364   3.396   4.491   4.524
 2834SOL     OW11365   3.537   4.033   4.580
 2834SOL    HW211366   3.600   3.970   4.614
 2834SOL    HW311367   3.455   3.984   4.574
 2834SOL    MW411368   3.535   4.018   4.583
 2835SOL     OW11369   3.707   0.039   4.533
 2835SOL    HW211370   3.641   0.058   4.600
 2835SOL    HW311371   3.661   0.047   4.450
 2835SOL    MW411372   3.692   0.043   4.531
 2836SOL     OW11373   3.398   1.036   4.761
 2836SOL    HW211374   3.482   1.030   4.716
 2836SOL    HW311375   3.370   1.127   4.750
 2836SOL    MW411376   3.405   1.047   4.753
 2837SOL     OW11377   2.701   0.409   4.668
 2837SOL    HW211378   2.776   0.445   4.715
 2837SOL    HW311379   2.684   0.325   4.710
 2837SOL    MW411380   2.708   0.403   4.680
 2838SOL     OW11381   4.218   1.595   4.660
 2838SOL    HW211382   4.141   1.539   4.662
 2838SOL    HW311383   4.287   1.541   4.623
 2838SOL    MW411384   4.217   1.581   4.655
 2839SOL     OW11385   3.801   0.824   4.511
 2839SOL    HW211386   3.782   0.762   4.441
 2839SOL    HW311387   3.874   0.876   4.478
 2839SOL    MW411388   3.808   0.823   4.498
 2840SOL     OW11389   4.418   0.938   4.547
 2840SOL    HW211390   4.439   0.946   4.454
 2840SOL    HW311391   4.496   0.898   4.586
 2840SOL    MW411392   4.431   0.934   4.540
 2841SOL     OW11393   4.297   0.506   4.473
 2841SOL    HW211394   4.273   0.497   4.381
 2841SOL    HW311395   4.237   0.449   4.521
 2841SOL    MW411396   4.286   0.498   4.467
 2842SOL     OW11397   3.567   1.668   4.268
 2842SOL    HW211398   3.645   1.621   4.239
 2842SOL    HW311399   3.495   1.624   4.223
 2842SOL    MW411400   3.568   1.656   4.258
 2843SOL     OW11401   3.945   1.584   4.409
 2843SOL    HW211402   4.025   1.628   4.379
 2843SOL    HW311403   3.900   1.648   4.463
 2843SOL    MW411404   3.950   1.598   4.412
 2844SOL     OW11405   3.586   2.181   4.526
 2844SOL    HW211406   3.521   2.112   4.540
 2844SOL    HW311407   3.668   2.134   4.516
 2844SOL    MW411408   3.588   2.165   4.526
 2845SOL     OW11409   3.814   1.764   4.576
 2845SOL    HW211410   3.723   1.736   4.585
 2845SOL    HW311411   3.853   1.746   4.662
 2845SOL    MW411412   3.807   1.758   4.589
 2846SOL     OW11413   0.192   1.759   4.759
 2846SOL    HW211414   0.286   1.770   4.773
 2846SOL    HW311415   0.182   1.666   4.737
 2846SOL    MW411416   0.203   1.748   4.758
 2847SOL     OW11417   3.822   2.045   4.504
 2847SOL    HW211418   3.909   2.070   4.535
 2847SOL    HW311419   3.816   1.951   4.524
 2847SOL    MW411420   3.833   2.036   4.511
 2848SOL     OW11421   3.874   2.481   4.578
 2848SOL    HW211422   3.873   2.414   4.646
 2848SOL    HW311423   3.784   2.483   4.545
 2848SOL    MW411424   3.862   2.472   4.583
 2849SOL     OW11425   4.131   2.551   4.484
 2849SOL    HW211426   4.038   2.547   4.510
 2849SOL    HW311427   4.148   2.644   4.473
 2849SOL    MW411428   4.121   2.562   4.486
 2850SOL     OW11429   4.340   2.991   4.611
 2850SOL    HW211430   4.391   3.071   4.607
 2850SOL    HW311431   4.398   2.927   4.653
 2850SOL    MW411432   4.354   2.993   4.616
 2851SOL     OW11433   3.283   3.317   4.570
 2851SOL    HW211434   3.368   3.278   4.588
 2851SOL    HW311435   3.277   3.318   4.474
 2851SOL    MW411436   3.293   3.312   4.559
 2852SOL     OW11437   4.040   3.156   4.554
 2852SOL    HW211438   4.118   3.132   4.605
 2852SOL    HW311439   4.071   3.164   4.465
 2852SOL    MW411440   4.054   3.154   4.549
 2853SOL     OW11441   3.225   3.619   4.533
 2853SOL    HW211442   3.131   3.608   4.517
 2853SOL    HW311443   3.250   3.541   4.584
 2853SOL    MW411444   3.216   3.607   4.538
 2854SOL     OW11445   4.305   3.594   4.529
 2854SOL    HW211446   4.287   3.576   4.437
 2854SOL    HW311447   4.221   3.583   4.573
 2854SOL    MW411448   4.292   3.590   4.523
 2855SOL     OW11449   0.234   2.791   4.536
 2855SOL    HW211450   0.242   2.788   4.441
 2855SOL    HW311451   0.285   2.867   4.562
 2855SOL    MW411452   0.242   2.801   4.527
 2856SOL     OW11453   4.093   3.989   4.476
 2856SOL    HW211454   4.072   4.074   4.514
 2856SOL    HW311455   4.027   3.930   4.512
 2856SOL    MW411456   4.082   3.992   4.486
 2857SOL     OW11457   3.818   4.425   4.551
 2857SOL    HW211458   3.812   4.396   4.460
 2857SOL    HW311459   3.786   4.515   4.550
 2857SOL    MW411460   3.813   4.433   4.539
 2858SOL     OW11461   3.424   0.079   4.605
 2858SOL    HW211462   3.423   0.164   4.561
 2858SOL    HW311463   3.362   0.089   4.678
 2858SOL    MW411464   3.415   0.091   4.609
 2859SOL     OW11465   3.633   1.023   4.603
 2859SOL    HW211466   3.680   1.103   4.582
 2859SOL    HW311467   3.692   0.952   4.577
 2859SOL    MW411468   3.647   1.024   4.596
 2860SOL     OW11469   3.572   0.638   4.709
 2860SOL    HW211470   3.661   0.635   4.673
 2860SOL    HW311471   3.521   0.683   4.642
 2860SOL    MW411472   3.577   0.644   4.696
 2861SOL     OW11473   0.027   0.350   4.581
 2861SOL    HW211474   0.106   0.399   4.558
 2861SOL    HW311475  -0.046   0.407   4.557
 2861SOL    MW411476   0.028   0.364   4.575
 2862SOL     OW11477   0.255   0.517   4.525
 2862SOL    HW211478   0.325   0.457   4.552
 2862SOL    HW311479   0.251   0.508   4.430
 2862SOL    MW411480   0.263   0.508   4.516
 2863SOL     OW11481   4.104   0.379   4.643
 2863SOL    HW211482   4.045   0.455   4.649
 2863SOL    HW311483   4.053   0.314   4.594
 2863SOL    MW411484   4.089   0.381   4.637
 2864SOL     OW11485   3.776   1.224   4.524
 2864SOL    HW211486   3.697   1.279   4.528
 2864SOL    HW311487   3.846   1.280   4.557
 2864SOL    MW411488   3.775   1.239   4.529
 2865SOL     OW11489   0.011   1.197   4.639
 2865SOL    HW211490   0.098   1.197   4.598
 2865SOL    HW311491  -0.020   1.107   4.629
 2865SOL    MW411492   0.019   1.185   4.632
 2866SOL     OW11493   4.388   1.426   4.530
 2866SOL    HW211494   4.431   1.352   4.573
 2866SOL    HW311495   4.458   1.490   4.517
 2866SOL    MW411496   4.403   1.425   4.534
 2867SOL     OW11497   4.008   1.417   4.607
 2867SOL    HW211498   4.071   1.357   4.568
 2867SOL    HW311499   3.991   1.482   4.539
 2867SOL    MW411500   4.014   1.418   4.593
 2868SOL     OW11501   3.315   2.922   4.498
 2868SOL    HW211502   3.325   2.900   4.406
 2868SOL    HW311503   3.386   2.984   4.516
 2868SOL    MW411504   3.326   2.927   4.488
 2869SOL     OW11505   4.260   2.097   4.234
 2869SOL    HW211506   4.188   2.043   4.203
 2869SOL    HW311507   4.241   2.111   4.327
 2869SOL    MW411508   4.248   2.092   4.242
 2870SOL     OW11509   0.218   2.083   4.489
 2870SOL    HW211510   0.300   2.091   4.539
 2870SOL    HW311511   0.177   2.169   4.499
 2870SOL    MW411512   0.224   2.096   4.497
 2871SOL     OW11513   4.103   2.098   4.516
 2871SOL    HW211514   4.160   2.022   4.530
 2871SOL    HW311515   4.162   2.173   4.519
 2871SOL    MW411516   4.119   2.098   4.519
 2872SOL     OW11517   3.600   2.451   4.515
 2872SOL    HW211518   3.522   2.503   4.531
 2872SOL    HW311519   3.572   2.360   4.528
 2872SOL    MW411520   3.586   2.446   4.519
 2873SOL     OW11521   0.492   2.348   4.708
 2873SOL    HW211522   0.429   2.406   4.666
 2873SOL    HW311523   0.482   2.364   4.802
 2873SOL    MW411524   0.483   2.358   4.715
 2874SOL     OW11525   4.167   2.817   4.464
 2874SOL    HW211526   4.217   2.873   4.524
 2874SOL    HW311527   4.210   2.828   4.380
 2874SOL    MW411528   4.179   2.826   4.461
 2875SOL     OW11529   0.044   2.818   4.723
 2875SOL    HW211530   0.079   2.766   4.795
 2875SOL    HW311531   0.102   2.800   4.650
 2875SOL    MW411532   0.056   2.809   4.723
 2876SOL     OW11533   0.201   3.455   4.452
 2876SOL    HW211534   0.219   3.425   4.363
 2876SOL    HW311535   0.120   3.410   4.476
 2876SOL    MW411536   0.193   3.445   4.443
 2877SOL     OW11537   4.314   0.226   4.756
 2877SOL    HW211538   4.393   0.269   4.726
 2877SOL    HW311539   4.246   0.294   4.751
 2877SOL    MW411540   4.315   0.241   4.752
 2878SOL     OW11541   3.988   0.161   4.517
 2878SOL    HW211542   3.999   0.129   4.428
 2878SOL    HW311543   3.908   0.119   4.549
 2878SOL    MW411544   3.979   0.151   4.510
 2879SOL     OW11545   4.202   3.913   4.850
 2879SOL    HW211546   4.162   3.826   4.854
 2879SOL    HW311547   4.278   3.902   4.793
 2879SOL    MW411548   4.207   3.900   4.843
 2880SOL     OW11549   3.164   0.606   4.795
 2880SOL    HW211550   3.221   0.533   4.774
 2880SOL    HW311551   3.202   0.644   4.874
 2880SOL    MW411552   3.176   0.602   4.803
 2881SOL     OW11553   4.272   4.381   4.274
 2881SOL    HW211554   4.335   4.322   4.232
 2881SOL    HW311555   4.300   4.385   4.365
 2881SOL    MW411556   4.284   4.374   4.280
 2882NA      NA11557   2.717   4.211   0.697
 2883NA      NA11558   0.575   2.233   0.404
   4.49070   4.66690  10.00000
