Gromacs Runs On Most of All Computer Systems in water
11558
    1RG35     P    1   1.944   2.795   4.285  0.3980  0.1307  0.1800
    1RG35   O1P    2   1.868   2.682   4.240 -0.2109 -0.0871  0.5954
    1RG35   O2P    3   1.853   2.908   4.318  0.3293  0.1151  0.0148
    1RG35   O5'    4   2.010   2.756   4.425 -0.1323  0.1844  0.3341
    1RG35   C5'    5   2.092   2.644   4.440 -0.5463  0.6785  0.5501
    1RG35  H5'1    6   2.177   2.654   4.371 -0.0622 -2.8521  0.5495
    1RG35  H5'2    7   2.036   2.562   4.397 -0.9996  0.5098  1.4617
    1RG35   C4'    8   2.128   2.627   4.585 -0.7764 -0.5080  0.0768
    1RG35   H4'    9   2.172   2.721   4.615  1.7518 -2.6272  3.2754
    1RG35   O4'   10   2.020   2.598   4.664  0.0820 -0.1347  0.4082
    1RG35   C1'   11   2.015   2.457   4.689 -0.3063 -0.2689  0.0467
    1RG35   H1'   12   1.993   2.439   4.794 -0.1031 -1.2599 -0.0776
    1RG35    N9   13   1.912   2.391   4.603  0.3067  0.0896  0.8077
    1RG35    C8   14   1.806   2.453   4.539 -0.6063  0.9959 -0.0705
    1RG35    H8   15   1.797   2.560   4.527  0.1257  1.0108 -0.4804
    1RG35    N7   16   1.715   2.367   4.491  0.8729 -0.0332  0.4969
    1RG35    C5   17   1.768   2.241   4.527  0.6462 -0.3872 -0.4684
    1RG35    C6   18   1.708   2.108   4.509  0.3014  0.7429  0.0194
    1RG35    O6   19   1.600   2.071   4.465 -0.2417  0.4267  0.0572
    1RG35    N1   20   1.779   2.013   4.567  0.1350 -0.2026  0.1345
    1RG35    H1   21   1.731   1.925   4.558 -0.9602  0.4505 -0.6186
    1RG35    C2   22   1.895   2.035   4.630  0.4857 -0.3990  0.0732
    1RG35    N2   23   1.954   1.930   4.667 -0.4714 -0.0676 -0.1601
    1RG35   H21   24   1.912   1.841   4.644  3.2069 -1.2800 -2.8079
    1RG35   H22   25   2.054   1.939   4.676 -0.2881 -2.5168  0.4943
    1RG35    N3   26   1.957   2.153   4.654 -0.0615  0.5295 -0.0823
    1RG35    C4   27   1.885   2.253   4.596 -0.2231  0.0834 -0.4575
    1RG35   C3'   28   2.234   2.520   4.614  0.1661  0.2511  0.8834
    1RG35   H3'   29   2.281   2.483   4.523 -0.3479 -0.9221  1.0915
    1RG35   C2'   30   2.157   2.400   4.673  0.6469 -0.1315 -0.1423
    1RG35  H2'1   31   2.158   2.317   4.602  1.0639 -1.5243  1.4538
    1RG35   O2'   32   2.215   2.364   4.798  0.6993 -0.0449 -0.3190
    1RG35  HO'2   33   2.277   2.436   4.811  0.1999  0.2674  0.3599
    1RG35   O3'   34   2.325   2.575   4.705 -0.2128 -0.5900  0.0348
    1RG35   H3T   35   2.387   2.627   4.653  1.8629 -4.2706 -1.3885
    1RG35   O3P   36   2.057   2.833   4.198  0.0777  0.1089  0.2203
    1SOL     OW   37   0.421   0.032   0.468 -0.0921  0.0361 -0.2113
    1SOL    HW2   38   0.467   0.111   0.437  0.2036 -0.5052 -1.1723
    1SOL    HW3   39   0.329   0.057   0.467  0.0521  0.6026  0.1730
    1SOL    MW4   40   0.415   0.046   0.464 -0.0341  0.0394 -0.2874
    1SOL     OW   41   4.009   0.050   0.445  0.0527  0.4483 -0.0189
    1SOL    HW2   42   4.025  -0.039   0.414 -0.9604  0.0981  0.4701
    1SOL    HW3   43   4.089   0.097   0.421  0.5106 -0.5316 -0.4736
    1SOL    MW4   44   4.022   0.045   0.437 -0.0205  0.2728 -0.0144
    1SOL     OW   45   3.786   0.269   0.156  0.0752 -0.1690 -0.0448
    1SOL    HW2   46   3.793   0.239   0.066  0.5469 -0.5734  0.1227
    1SOL    HW3   47   3.765   0.191   0.206 -0.3396  0.0824  0.1782
    1SOL    MW4   48   3.784   0.255   0.151  0.0827 -0.1892  0.0067
    1SOL     OW   49   4.487   1.746   0.509  0.1761  0.6834  0.2846
    1SOL    HW2   50   4.525   1.668   0.469  0.6198  0.5229  1.0217
    1SOL    HW3   51   4.500   1.734   0.603 -1.7095  0.6097  0.5497
    1SOL    MW4   52   4.494   1.734   0.516 -0.0138  0.6526  0.4168
    1SOL     OW   53   1.223   0.924   0.429 -0.1719  0.4677 -0.1644
    1SOL    HW2   54   1.139   0.881   0.416 -0.7701  0.9949  1.8208
    1SOL    HW3   55   1.203   1.017   0.432  0.6814  0.6867 -1.1926
    1SOL    MW4   56   1.210   0.931   0.428 -0.1383  0.5662 -0.0381
    1SOL     OW   57   0.105   0.549   0.489  0.0398 -0.3056 -0.0445
    1SOL    HW2   58   0.141   0.525   0.574 -0.9570  0.8938  0.7376
    1SOL    HW3   59   0.111   0.469   0.437  3.2467 -0.3159  0.2240
    1SOL    MW4   60   0.111   0.535   0.493  0.3314 -0.1487  0.0941
    1SOL     OW   61   0.220   1.066   0.523  0.1297 -0.0112  0.0837
    1SOL    HW2   62   0.310   1.039   0.503 -0.2389 -0.9330 -0.3382
    1SOL    HW3   63   0.169   0.985   0.520 -0.9062  0.6590 -0.7603
    1SOL    MW4   64   0.225   1.052   0.520 -0.0556 -0.0445 -0.0833
    1SOL     OW   65   0.494   0.955   0.494  0.1027 -0.3822  0.5275
    1SOL    HW2   66   0.583   0.989   0.492 -0.3362  0.8419  1.2916
    1SOL    HW3   67   0.488   0.907   0.576 -0.6982  1.7046  1.7311
    1SOL    MW4   68   0.505   0.953   0.504 -0.0609  0.0547  0.7871
    1SOL     OW   69   0.783   1.027   0.468 -0.2939  0.2137 -0.0014
    1SOL    HW2   70   0.831   0.959   0.421 -2.8325 -1.6434 -0.0242
    1SOL    HW3   71   0.819   1.026   0.556  2.2732  1.4950 -0.9765
    1SOL    MW4   72   0.794   1.018   0.473 -0.2901  0.1377 -0.1331
    1SOL     OW   73   4.023   1.792   0.490 -0.0382  0.7364  0.1286
    1SOL    HW2   74   4.017   1.715   0.434  0.7548  0.5514  0.3013
    1SOL    HW3   75   3.934   1.827   0.491 -0.3664 -0.0817 -0.0798
    1SOL    MW4   76   4.010   1.787   0.483  0.0238  0.6040  0.1239
    1SOL     OW   77   4.059   1.511   0.413 -0.3071  0.1499 -0.0950
    1SOL    HW2   78   4.085   1.509   0.320  0.4856  0.5844  0.1164
    1SOL    HW3   79   4.130   1.467   0.459  0.2479  1.6746  0.5329
    1SOL    MW4   80   4.071   1.505   0.407 -0.1292  0.4084  0.0157
    1SOL     OW   81   4.237   2.207   0.410  0.5634  0.1490 -0.1565
    1SOL    HW2   82   4.257   2.114   0.409  0.8700  0.2179 -1.6451
    1SOL    HW3   83   4.147   2.212   0.443  0.8313 -0.6125  0.6846
    1SOL    MW4   84   4.228   2.195   0.414  0.6390  0.0577 -0.2419
    1SOL     OW   85   0.597   2.334   0.281  0.0004 -0.0467  0.2109
    1SOL    HW2   86   0.548   2.268   0.329  2.1477 -0.6685  1.6234
    1SOL    HW3   87   0.689   2.308   0.291  0.6345  1.0167 -2.4439
    1SOL    MW4   88   0.603   2.322   0.289  0.3674  0.0114  0.0471
    1SOL     OW   89   0.091   2.810   0.440  0.7787 -0.4040  0.4094
    1SOL    HW2   90   0.118   2.880   0.381 -0.3874 -0.4052 -0.1314
    1SOL    HW3   91   0.013   2.844   0.483  0.6694 -1.0573  0.7232
    1SOL    MW4   92   0.084   2.824   0.438  0.6105 -0.4902  0.3794
    1SOL     OW   93   4.308   3.396   0.455  0.0717 -0.1591 -0.4632
    1SOL    HW2   94   4.257   3.314   0.458  0.3232 -0.2835  1.1059
    1SOL    HW3   95   4.399   3.368   0.459  0.1449  0.2106  0.5861
    1SOL    MW4   96   4.313   3.381   0.456  0.1144 -0.1266 -0.1177
    1SOL     OW   97   0.318   3.232   0.320  0.7718  0.1278 -0.4413
    1SOL    HW2   98   0.402   3.212   0.362  1.4390 -0.0367 -1.8109
    1SOL    HW3   99   0.327   3.324   0.292 -0.3405  0.7901  1.3201
    1SOL    MW4  100   0.330   3.242   0.322  0.7131  0.1936 -0.3896
    1SOL     OW  101   0.619   3.441   0.366 -0.2111 -0.2784  0.0105
    1SOL    HW2  102   0.710   3.425   0.342 -0.1434  0.0219  0.0581
    1SOL    HW3  103   0.623   3.512   0.430 -0.4039 -0.8948  0.7229
    1SOL    MW4  104   0.631   3.448   0.371 -0.2276 -0.3202  0.1108
    1SOL     OW  105   0.959   3.816   0.158  0.5031  0.1641 -0.3709
    1SOL    HW2  106   1.027   3.810   0.092 -0.0305  0.3575 -0.9513
    1SOL    HW3  107   0.979   3.897   0.205  1.1054 -0.1752 -0.0452
    1SOL    MW4  108   0.970   3.826   0.155  0.5121  0.1450 -0.4045
    1SOL     OW  109   3.759   3.413   0.324 -0.2515 -0.0982  0.0528
    1SOL    HW2  110   3.785   3.488   0.377  1.9175  0.2631 -1.4443
    1SOL    HW3  111   3.691   3.447   0.265  0.1012  0.4715 -0.0235
    1SOL    MW4  112   3.753   3.427   0.323  0.0813  0.0246 -0.1548
    1SOL     OW  113   0.151   4.071   0.325 -0.3646 -0.5726  0.0220
    1SOL    HW2  114   0.106   4.061   0.242 -1.0431  0.3203  0.2722
    1SOL    HW3  115   0.081   4.084   0.389  0.1886 -0.3374  0.5875
    1SOL    MW4  116   0.136   4.071   0.323 -0.3811 -0.4234  0.1296
    1SOL     OW  117   0.018   4.496   0.357 -0.0840  0.1715 -0.2372
    1SOL    HW2  118   0.094   4.441   0.373 -0.1481  0.1611  0.0350
    1SOL    HW3  119  -0.055   4.451   0.400  0.0732  1.0223  0.9610
    1SOL    MW4  120   0.018   4.483   0.365 -0.0717  0.2828 -0.0432
    1SOL     OW  121   4.297   4.339   0.493 -0.0410 -0.4651  0.2704
    1SOL    HW2  122   4.334   4.251   0.500  1.0759  0.0629  1.1720
    1SOL    HW3  123   4.286   4.368   0.583  3.7617  2.0032  0.0819
    1SOL    MW4  124   4.301   4.331   0.505  0.6080 -0.0696  0.3645
    1SOL     OW  125   4.327   4.574   0.162 -0.1087 -0.3961  0.7204
    1SOL    HW2  126   4.258   4.545   0.222  0.8471 -2.8875  0.6915
    1SOL    HW3  127   4.407   4.534   0.197  0.6233 -1.0917 -1.6267
    1SOL    MW4  128   4.329   4.565   0.175  0.1135 -0.8168  0.4069
    1SOL     OW  129   0.345   3.496   0.259  0.3761  0.0037 -0.1517
    1SOL    HW2  130   0.439   3.508   0.271  0.2985 -0.1137  0.5461
    1SOL    HW3  131   0.306   3.577   0.292  0.2586  0.2423 -0.8589
    1SOL    MW4  132   0.353   3.508   0.265  0.3503  0.0196 -0.1529
    1SOL     OW  133   0.471   4.453   0.344 -0.1691 -0.1294  0.3374
    1SOL    HW2  134   0.440   4.534   0.383  1.9561  0.4748  0.8318
    1SOL    HW3  135   0.518   4.481   0.265  1.0692 -0.8409  0.8214
    1SOL    MW4  136   0.473   4.467   0.339  0.2746 -0.1431  0.4665
    1SOL     OW  137   0.079   0.293   0.339 -0.1117 -0.2619  0.4076
    1SOL    HW2  138   0.031   0.263   0.261 -0.8627 -0.3413  0.8899
    1SOL    HW3  139   0.098   0.213   0.388  0.7225 -0.2526  0.1070
    1SOL    MW4  140   0.075   0.278   0.335 -0.1007 -0.2712  0.4316
    1SOL     OW  141   4.316   0.499   0.486 -0.1711 -0.6950 -0.1821
    1SOL    HW2  142   4.409   0.516   0.467 -0.4882 -1.2782 -2.4856
    1SOL    HW3  143   4.268   0.560   0.430 -1.1874 -1.1928  0.1338
    1SOL    MW4  144   4.322   0.509   0.476 -0.3471 -0.8376 -0.4443
    1SOL     OW  145   1.035   4.422   0.455  0.0496 -0.3998  0.1766
    1SOL    HW2  146   0.954   4.378   0.432 -0.6477  0.4711  0.9645
    1SOL    HW3  147   1.053   4.395   0.545  0.0180  0.3367  0.4048
    1SOL    MW4  148   1.027   4.412   0.464 -0.0466 -0.1879  0.3107
    1SOL     OW  149   0.469   0.717   0.333 -0.5162  0.5363 -0.1179
    1SOL    HW2  150   0.456   0.810   0.352 -1.3065  0.4914 -0.4102
    1SOL    HW3  151   0.388   0.690   0.290  0.0781 -0.0688 -0.8723
    1SOL    MW4  152   0.456   0.726   0.330 -0.5420  0.4506 -0.2560
    1SOL     OW  153   0.657   0.480   0.492 -0.3098  0.3450  0.0425
    1SOL    HW2  154   0.619   0.398   0.461  0.0429 -0.8858  2.7717
    1SOL    HW3  155   0.596   0.547   0.464 -0.2677 -0.7451 -2.8291
    1SOL    MW4  156   0.644   0.478   0.484 -0.2577  0.0388  0.0238
    1SOL     OW  157   0.170   1.245   0.316  0.3037  0.1025 -0.4346
    1SOL    HW2  158   0.175   1.190   0.394 -0.9906 -1.2687 -1.2771
    1SOL    HW3  159   0.251   1.227   0.269  0.8148  0.4770  0.2895
    1SOL    MW4  160   0.181   1.235   0.320  0.2003 -0.0290 -0.4502
    1SOL     OW  161   0.329   1.674   0.493  0.0731  0.0148  0.2962
    1SOL    HW2  162   0.407   1.642   0.447 -0.1786  0.5879 -0.5347
    1SOL    HW3  163   0.268   1.600   0.490  0.5678 -0.4304  0.9387
    1SOL    MW4  164   0.331   1.660   0.487  0.1052  0.0317  0.2713
    1SOL     OW  165   0.112   1.479   0.484 -0.1486  0.1658 -0.1947
    1SOL    HW2  166   0.024   1.462   0.518 -0.0778 -0.2783 -0.2330
    1SOL    HW3  167   0.125   1.413   0.417 -0.6142  1.5469 -1.6980
    1SOL    MW4  168   0.102   1.468   0.480 -0.2007  0.2894 -0.3981
    1SOL     OW  169   0.309   2.507   0.162 -0.0312 -0.2138 -0.6647
    1SOL    HW2  170   0.230   2.528   0.212 -0.6219 -1.4652 -1.0563
    1SOL    HW3  171   0.283   2.517   0.071  0.3538 -0.3435 -0.7905
    1SOL    MW4  172   0.295   2.511   0.157 -0.0583 -0.3958 -0.7330
    1SOL     OW  173   0.373   2.446   0.446  0.2852 -0.2274 -0.3763
    1SOL    HW2  174   0.283   2.475   0.434 -0.3297 -0.7565  2.6062
    1SOL    HW3  175   0.370   2.351   0.439  0.6161 -0.2483 -0.2863
    1SOL    MW4  176   0.361   2.438   0.444  0.2477 -0.3002  0.0291
    1SOL     OW  177   3.722   2.283   0.423 -0.2115 -0.0297 -0.0350
    1SOL    HW2  178   3.656   2.267   0.356 -0.4449  1.5967 -0.2274
    1SOL    HW3  179   3.703   2.372   0.454  1.1296 -0.0079  0.7609
    1SOL    MW4  180   3.711   2.293   0.418 -0.0653  0.1879  0.0446
    1SOL     OW  181   0.719   2.626   0.295  0.2299  0.4109  0.2063
    1SOL    HW2  182   0.795   2.668   0.255  0.8463  0.4311  1.3755
    1SOL    HW3  183   0.756   2.572   0.366 -0.7666 -0.2490  0.2301
    1SOL    MW4  184   0.734   2.624   0.299  0.1797  0.3264  0.3637
    1SOL     OW  185   0.448   2.788   0.322  0.6381 -0.0354 -0.5557
    1SOL    HW2  186   0.362   2.831   0.323 -0.2793 -1.8272 -0.7678
    1SOL    HW3  187   0.504   2.846   0.374 -0.5048  1.5391 -1.0590
    1SOL    MW4  188   0.444   2.801   0.329  0.3663 -0.0641 -0.6501
    1SOL     OW  189   4.379   2.996   0.561 -0.3433 -0.1764  0.3508
    1SOL    HW2  190   4.292   3.034   0.554  0.1279  0.6936 -0.8512
    1SOL    HW3  191   4.435   3.068   0.589 -0.0178 -0.7499  1.1905
    1SOL    MW4  192   4.375   3.010   0.564 -0.2379 -0.1371  0.3030
    1SOL     OW  193   0.226   2.978   0.257  0.4147 -0.2444  0.5972
    1SOL    HW2  194   0.254   3.069   0.270 -0.7833  0.0998  0.8746
    1SOL    HW3  195   0.176   2.981   0.175  0.3310 -0.6368  0.6347
    1SOL    MW4  196   0.223   2.991   0.248  0.2456 -0.2506  0.6388
    1SOL     OW  197   0.593   0.253   0.352  0.0971  0.3031 -0.0144
    1SOL    HW2  198   0.541   0.265   0.273 -0.3646 -0.9929  0.0772
    1SOL    HW3  199   0.681   0.234   0.319  0.2921  1.4892 -0.1846
    1SOL    MW4  200   0.598   0.252   0.337  0.0619  0.2886 -0.0248
    1SOL     OW  201   0.113   3.357   0.480  0.1961 -0.1376  0.1904
    1SOL    HW2  202   0.127   3.451   0.479 -0.4866 -0.0349 -0.0554
    1SOL    HW3  203   0.181   3.322   0.422  0.0528  0.2594 -0.2215
    1SOL    MW4  204   0.124   3.364   0.472  0.0871 -0.0718  0.1036
    1SOL     OW  205   0.720   3.680   0.486  0.3506  0.1051  0.8078
    1SOL    HW2  206   0.659   3.754   0.479  1.3196  0.8270 -0.0488
    1SOL    HW3  207   0.712   3.652   0.577  1.4110  2.5015  1.6812
    1SOL    MW4  208   0.711   3.686   0.497  0.6183  0.5167  0.8100
    1SOL     OW  209   0.969   3.648   0.374  0.1810 -0.1711  0.2278
    1SOL    HW2  210   0.967   3.702   0.295  1.0890  0.3153  0.5235
    1SOL    HW3  211   0.880   3.653   0.409  0.0370  0.4413 -0.2089
    1SOL    MW4  212   0.957   3.656   0.368  0.2818 -0.0260  0.2092
    1SOL     OW  213   0.296   3.821   0.349  0.2809  0.2962 -0.4868
    1SOL    HW2  214   0.382   3.856   0.370  0.4064  0.3475 -1.0614
    1SOL    HW3  215   0.241   3.898   0.335  0.3204  0.2687 -0.8128
    1SOL    MW4  216   0.300   3.836   0.350  0.3027  0.2995 -0.6056
    1SOL     OW  217   0.875   3.399   0.252  0.0686  0.3325  0.0468
    1SOL    HW2  218   0.909   3.475   0.298  2.0928 -0.1571 -0.5763
    1SOL    HW3  219   0.864   3.428   0.162 -0.5952  0.3173  0.1237
    1SOL    MW4  220   0.878   3.413   0.246  0.2482  0.2661 -0.0253
    1SOL     OW  221   0.750   4.318   0.469 -0.1005  0.0715 -0.0585
    1SOL    HW2  222   0.676   4.366   0.431  1.9131  2.1766 -1.5124
    1SOL    HW3  223   0.753   4.348   0.560 -1.2742 -0.3158  0.1080
    1SOL    MW4  224   0.741   4.329   0.476  0.0104  0.2985 -0.2284
    1SOL     OW  225   0.218   4.306   0.433 -0.4054  0.8269 -0.2190
    1SOL    HW2  226   0.223   4.216   0.401  1.8127  0.8925 -0.1679
    1SOL    HW3  227   0.297   4.348   0.399 -0.5841  2.3055  1.1099
    1SOL    MW4  228   0.229   4.299   0.425 -0.1363  1.0304 -0.0370
    1SOL     OW  229   0.954   0.823   0.374  0.3751  0.2057  0.1086
    1SOL    HW2  230   0.916   0.783   0.296 -1.1302 -0.6665  1.2621
    1SOL    HW3  231   0.926   0.766   0.446 -0.5202  2.4984  1.5989
    1SOL    MW4  232   0.945   0.810   0.373  0.0584  0.3931  0.4574
    1SOL     OW  233   0.049   0.847   0.501  0.4610  0.3921 -0.2126
    1SOL    HW2  234   0.070   0.753   0.503  0.4737  0.3948 -0.2167
    1SOL    HW3  235  -0.029   0.853   0.446  0.4207  0.3758 -0.1569
    1SOL    MW4  236   0.041   0.835   0.494  0.4574  0.3902 -0.2058
    1SOL     OW  237   1.283   0.657   0.556 -0.4370 -0.8721  0.3563
    1SOL    HW2  238   1.260   0.748   0.537  0.5826 -0.3800  1.4041
    1SOL    HW3  239   1.379   0.655   0.553 -0.5072 -2.3387 -1.5447
    1SOL    MW4  240   1.293   0.669   0.553 -0.3119 -1.0006  0.2437
    1SOL     OW  241   1.781   0.692   0.406 -0.0520 -0.1388  0.5407
    1SOL    HW2  242   1.769   0.766   0.465  0.2914  0.3918 -0.0527
    1SOL    HW3  243   1.726   0.713   0.330  0.7711 -0.0444 -0.0317
    1SOL    MW4  244   1.772   0.705   0.404  0.1019 -0.0563  0.3869
    1SOL     OW  245   1.488   0.925   0.527  0.1520 -0.1047 -0.4841
    1SOL    HW2  246   1.409   0.915   0.474  0.1813 -0.8474 -0.3909
    1SOL    HW3  247   1.463   0.896   0.614  0.4460 -0.0498 -0.3812
    1SOL    MW4  248   1.474   0.920   0.531  0.1947 -0.1954 -0.4582
    1SOL     OW  249   0.566   1.557   0.418 -0.2547 -0.3579  0.6240
    1SOL    HW2  250   0.642   1.612   0.438 -0.3031 -0.0465 -0.0597
    1SOL    HW3  251   0.604   1.470   0.401 -0.1290 -0.4024  1.1225
    1SOL    MW4  252   0.581   1.553   0.418 -0.2445 -0.3226  0.5995
    1SOL     OW  253   0.719   1.288   0.420  0.3603 -0.4614 -0.3836
    1SOL    HW2  254   0.748   1.197   0.415 -0.2772 -0.6953  0.1822
    1SOL    HW3  255   0.797   1.336   0.447  0.1847 -1.1060  1.3112
    1SOL    MW4  256   0.733   1.282   0.423  0.2530 -0.5773 -0.0853
    1SOL     OW  257   1.782   1.311   0.483 -0.1063  0.1303  0.3394
    1SOL    HW2  258   1.817   1.385   0.433 -0.4931 -0.0018 -0.1365
    1SOL    HW3  259   1.854   1.249   0.488 -0.6787 -0.7754 -1.8968
    1SOL    MW4  260   1.796   1.313   0.477 -0.2329 -0.0066 -0.0184
    1SOL     OW  261   1.172   1.225   0.482  0.2611  0.2993  0.3001
    1SOL    HW2  262   1.242   1.282   0.449 -0.3968 -0.1753 -2.0293
    1SOL    HW3  263   1.093   1.278   0.476 -0.0793 -0.2656 -0.2242
    1SOL    MW4  264   1.171   1.239   0.477  0.1295  0.1621 -0.0764
    1SOL     OW  265   0.941   1.419   0.514 -0.0292 -0.8980  0.2067
    1SOL    HW2  266   0.982   1.488   0.461  1.8037 -2.3971 -0.3692
    1SOL    HW3  267   0.913   1.464   0.594  1.2871  0.4878 -0.0872
    1SOL    MW4  268   0.943   1.434   0.518  0.3863 -0.9131  0.0920
    1SOL     OW  269   0.219   1.932   0.476 -0.4626 -0.5458  0.4452
    1SOL    HW2  270   0.129   1.901   0.478 -0.7672  0.3204  0.1463
    1SOL    HW3  271   0.272   1.852   0.476 -1.2199 -1.0487  0.9088
    1SOL    MW4  272   0.214   1.917   0.477 -0.6027 -0.4978  0.4669
    1SOL     OW  273   0.772   1.740   0.472 -0.5639 -0.1239  0.2310
    1SOL    HW2  274   0.855   1.764   0.432 -1.1984  3.6415  0.9957
    1SOL    HW3  275   0.795   1.694   0.552  0.8504  2.5464  1.4005
    1SOL    MW4  276   0.786   1.737   0.477 -0.4611  0.7252  0.4862
    1SOL     OW  277   0.869   2.487   0.477 -0.1166  0.2200 -0.4346
    1SOL    HW2  278   0.882   2.399   0.440  0.4694 -0.3510  1.0978
    1SOL    HW3  279   0.849   2.471   0.569 -0.3924  1.6904 -0.2358
    1SOL    MW4  280   0.868   2.473   0.484 -0.0757  0.3386 -0.2061
    1SOL     OW  281   0.413   2.161   0.432  0.1602  0.3349 -0.4492
    1SOL    HW2  282   0.491   2.106   0.438  0.7035  1.2433  0.9812
    1SOL    HW3  283   0.341   2.099   0.420  0.6841 -0.7748  1.8690
    1SOL    MW4  284   0.414   2.145   0.431  0.3010  0.3085  0.0454
    1SOL     OW  285   1.041   2.715   0.442 -0.0352  0.0250 -0.2975
    1SOL    HW2  286   0.987   2.637   0.435 -0.2498  0.1064  0.4247
    1SOL    HW3  287   0.982   2.788   0.423 -0.5022  0.2092  1.6945
    1SOL    MW4  288   1.026   2.715   0.439 -0.1251  0.0601  0.0606
    1SOL     OW  289   0.663   2.011   0.449 -0.4683 -0.1110  0.0285
    1SOL    HW2  290   0.746   2.037   0.409 -0.8026  0.4366 -0.3171
    1SOL    HW3  291   0.658   1.917   0.432 -0.3684  0.0256 -0.7920
    1SOL    MW4  292   0.673   2.002   0.441 -0.4993 -0.0210 -0.1253
    1SOL     OW  293   0.613   2.938   0.483 -0.3110 -0.1995 -0.2121
    1SOL    HW2  294   0.631   2.914   0.574  1.1469 -0.0936 -0.4511
    1SOL    HW3  295   0.589   3.031   0.487  0.5688  0.0310 -0.0054
    1SOL    MW4  296   0.612   2.947   0.496 -0.0026 -0.1552 -0.2164
    1SOL     OW  297   0.991   3.204   0.449 -0.1665  0.2466  0.3193
    1SOL    HW2  298   0.966   3.244   0.532 -0.4394  1.8013 -0.4943
    1SOL    HW3  299   0.961   3.265   0.382  1.6089 -0.1247 -0.8593
    1SOL    MW4  300   0.984   3.217   0.451  0.0317  0.4027  0.0564
    1SOL     OW  301   1.246   3.587   0.412 -0.6939  0.2629  0.1150
    1SOL    HW2  302   1.255   3.502   0.455  0.8848  0.7414  0.7745
    1SOL    HW3  303   1.158   3.587   0.376 -0.0173 -2.4918 -1.6765
    1SOL    MW4  304   1.236   3.576   0.412 -0.3963 -0.0377 -0.0344
    1SOL     OW  305   1.055   4.035   0.314 -0.1981  0.0317  0.3365
    1SOL    HW2  306   1.103   4.116   0.299 -0.2831 -0.0724 -0.5248
    1SOL    HW3  307   0.991   4.056   0.381  1.5799 -0.0261  2.0933
    1SOL    MW4  308   1.053   4.048   0.321  0.0253  0.0105  0.4547
    1SOL     OW  309   0.551   3.908   0.464 -0.4074 -0.0240 -0.4225
    1SOL    HW2  310   0.637   3.950   0.455 -0.3154 -0.2658 -0.6717
    1SOL    HW3  311   0.518   3.940   0.548  0.4350 -0.8361  0.2310
    1SOL    MW4  312   0.558   3.918   0.474 -0.2842 -0.1628 -0.3691
    1SOL     OW  313   1.237   4.276   0.302  0.3071 -0.0749  0.1363
    1SOL    HW2  314   1.184   4.335   0.355  0.1081 -0.0804 -0.0555
    1SOL    HW3  315   1.270   4.332   0.231 -0.0497 -0.2381 -0.1623
    1SOL    MW4  316   1.235   4.291   0.299  0.2338 -0.0973  0.0716
    1SOL     OW  317   0.936   0.557   0.542  0.1693  0.0894  0.1563
    1SOL    HW2  318   0.845   0.531   0.555  0.4748 -1.2027 -0.1812
    1SOL    HW3  319   0.982   0.525   0.620  0.3317  0.7530  0.3341
    1SOL    MW4  320   0.930   0.550   0.554  0.2310  0.0064  0.1353
    1SOL     OW  321   0.966   0.025   0.449  0.5898 -0.1711  0.1379
    1SOL    HW2  322   0.972  -0.070   0.441  1.0990 -0.0474 -0.9796
    1SOL    HW3  323   0.926   0.039   0.535  0.5962 -1.3891  0.3482
    1SOL    MW4  324   0.961   0.015   0.459  0.6579 -0.3155  0.0183
    1SOL     OW  325   1.322   0.424   0.389 -0.2220  0.2752  0.3256
    1SOL    HW2  326   1.413   0.400   0.404 -0.4954 -1.4139 -0.5086
    1SOL    HW3  327   1.304   0.493   0.453  1.7362  0.8838  0.2345
    1SOL    MW4  328   1.331   0.430   0.400  0.0002  0.1327  0.2035
    1SOL     OW  329   1.550   0.619   0.557  0.5656  0.5519  0.1733
    1SOL    HW2  330   1.555   0.525   0.574  1.1535  0.6151  0.3549
    1SOL    HW3  331   1.608   0.633   0.482  0.0592  0.6901 -0.1972
    1SOL    MW4  332   1.558   0.609   0.549  0.5763  0.5785  0.1484
    1SOL     OW  333   1.209   0.163   0.537 -0.6205 -0.5145  0.6736
    1SOL    HW2  334   1.235   0.238   0.484  1.5317 -2.1236 -0.6104
    1SOL    HW3  335   1.138   0.122   0.488 -0.6275 -0.3091  0.5142
    1SOL    MW4  336   1.203   0.167   0.524 -0.3376 -0.6997  0.4831
    1SOL     OW  337   1.860   0.314   0.528 -0.2331 -0.0535 -0.9765
    1SOL    HW2  338   1.847   0.234   0.578  0.7208 -0.2574 -1.0329
    1SOL    HW3  339   1.896   0.376   0.591  0.6697 -0.2129 -1.3241
    1SOL    MW4  340   1.863   0.312   0.543  0.0120 -0.1015 -1.0298
    1SOL     OW  341   2.062   0.595   0.435  0.0247 -0.2915  0.0921
    1SOL    HW2  342   2.078   0.508   0.398 -0.5820 -0.3909  0.0655
    1SOL    HW3  343   1.972   0.615   0.412  0.2018  0.4066 -0.0167
    1SOL    MW4  344   2.053   0.586   0.427 -0.0319 -0.2126  0.0742
    1SOL     OW  345   1.767   0.920   0.541 -0.1281 -0.2290 -0.2323
    1SOL    HW2  346   1.792   0.900   0.631  1.4592  1.0368 -0.3708
    1SOL    HW3  347   1.671   0.916   0.542 -0.1240 -0.5404  1.4336
    1SOL    MW4  348   1.758   0.917   0.553  0.0819 -0.1031 -0.0309
    1SOL     OW  349   1.534   1.220   0.534 -0.3195 -0.1857  0.1375
    1SOL    HW2  350   1.519   1.126   0.530  0.3919 -0.3258  0.5716
    1SOL    HW3  351   1.622   1.231   0.497 -0.4808  0.3278 -0.0906
    1SOL    MW4  352   1.544   1.209   0.529 -0.2469 -0.1364  0.1647
    1SOL     OW  353   1.405   1.453   0.495  0.7035  0.0457  0.9150
    1SOL    HW2  354   1.442   1.509   0.563  2.2379 -0.8579  0.8446
    1SOL    HW3  355   1.460   1.375   0.495 -1.1663 -1.2980  0.7314
    1SOL    MW4  356   1.417   1.450   0.504  0.6592 -0.2508  0.8814
    1SOL     OW  357   1.172   1.623   0.459 -0.4404  0.0340 -0.0588
    1SOL    HW2  358   1.202   1.627   0.550  0.3286  0.6938 -0.3485
    1SOL    HW3  359   1.243   1.579   0.412  0.7900  2.9830 -1.0324
    1SOL    MW4  360   1.185   1.618   0.465 -0.1765  0.5101 -0.2255
    1SOL     OW  361   0.850   1.987   0.209 -0.2942 -0.3847 -0.3126
    1SOL    HW2  362   0.925   1.944   0.249 -1.1651 -1.3147  0.3472
    1SOL    HW3  363   0.849   1.954   0.119  0.5708  0.2845 -0.5793
    1SOL    MW4  364   0.860   1.977   0.202 -0.2949 -0.4193 -0.2607
    1SOL     OW  365   1.281   2.567   0.425  0.1001 -0.1093  0.5279
    1SOL    HW2  366   1.207   2.625   0.407  0.3498  0.3903  1.0954
    1SOL    HW3  367   1.358   2.622   0.415  0.2625  0.1118  2.7708
    1SOL    MW4  368   1.281   2.582   0.422  0.1544 -0.0143  0.8987
    1SOL     OW  369   1.945   2.062   0.441  0.1172  0.1607  0.1912
    1SOL    HW2  370   1.956   2.068   0.536  0.8824 -0.1873  0.1272
    1SOL    HW3  371   2.033   2.073   0.405 -0.1881  0.4447 -0.4900
    1SOL    MW4  372   1.958   2.064   0.449  0.1779  0.1521  0.0929
    1SOL     OW  373   1.071   2.091   0.487 -0.6731 -0.2797  0.4856
    1SOL    HW2  374   1.139   2.154   0.463 -1.0466 -0.0537  0.0147
    1SOL    HW3  375   1.089   2.071   0.578  0.0191 -0.2070  0.3714
    1SOL    MW4  376   1.082   2.097   0.495 -0.6310 -0.2401  0.4085
    1SOL     OW  377   0.873   2.236   0.337 -0.3095 -0.3969  0.1674
    1SOL    HW2  378   0.947   2.201   0.388  1.2103  1.2316 -0.8612
    1SOL    HW3  379   0.853   2.167   0.273  0.7062 -0.6250  0.0894
    1SOL    MW4  380   0.880   2.222   0.335  0.0250 -0.2127  0.0214
    1SOL     OW  381   0.919   2.939   0.395  0.0605  0.2092  0.1219
    1SOL    HW2  382   0.824   2.937   0.396  0.0322 -0.8945 -1.9935
    1SOL    HW3  383   0.942   3.032   0.401 -1.1445  0.4530  0.9031
    1SOL    MW4  384   0.910   2.951   0.396 -0.1022  0.0956 -0.0542
    1SOL     OW  385   2.188   2.111   0.313 -0.0226 -0.0077 -0.3915
    1SOL    HW2  386   2.269   2.113   0.364  0.0858  0.4206 -0.5848
    1SOL    HW3  387   2.191   2.028   0.266 -0.0825 -0.3723  0.2317
    1SOL    MW4  388   2.199   2.100   0.314 -0.0165  0.0010 -0.3348
    1SOL     OW  389   1.838   3.998   0.456  0.0365 -0.1207 -0.1248
    1SOL    HW2  390   1.777   4.067   0.431  0.7152  0.4126 -0.3220
    1SOL    HW3  391   1.809   3.921   0.407 -0.9264 -0.0663  0.3574
    1SOL    MW4  392   1.826   3.997   0.446 -0.0011 -0.0429 -0.0872
    1SOL     OW  393   1.290   3.877   0.407  0.5703 -0.3229 -0.1312
    1SOL    HW2  394   1.279   3.782   0.408  2.1527 -0.5587 -1.5034
    1SOL    HW3  395   1.201   3.912   0.401 -0.0013 -1.7220  0.0245
    1SOL    MW4  396   1.277   3.869   0.406  0.7039 -0.5386 -0.2917
    1SOL     OW  397   1.780   2.598   0.509  0.1165 -0.1922 -0.2792
    1SOL    HW2  398   1.691   2.631   0.494 -0.0541 -1.0121 -1.0863
    1SOL    HW3  399   1.791   2.529   0.444  1.4216  0.0413 -0.3098
    1SOL    MW4  400   1.769   2.593   0.499  0.2661 -0.2697 -0.3897
    1SOL     OW  401   1.681   3.373   0.460  0.1117 -0.6734 -0.2369
    1SOL    HW2  402   1.702   3.362   0.553 -1.4135  1.3859  0.4155
    1SOL    HW3  403   1.764   3.359   0.414  1.2627 -0.0356  1.5863
    1SOL    MW4  404   1.695   3.370   0.466  0.0623 -0.3173  0.0897
    1SOL     OW  405   1.244   3.325   0.489  0.1183 -0.0233  0.6777
    1SOL    HW2  406   1.321   3.286   0.447  0.3264  0.3696  0.6939
    1SOL    HW3  407   1.173   3.265   0.467  0.0891  0.5618 -0.8583
    1SOL    MW4  408   1.245   3.312   0.480  0.1420  0.1059  0.4771
    1SOL     OW  409   2.241   2.652   0.384 -0.0124 -0.0574 -0.5822
    1SOL    HW2  410   2.225   2.566   0.346 -0.3975 -1.0349  1.7193
    1SOL    HW3  411   2.154   2.691   0.393  0.0094 -0.1428  0.0075
    1SOL    MW4  412   2.227   2.646   0.380 -0.0603 -0.1979 -0.2008
    1SOL     OW  413   0.792   4.035   0.479 -0.3237 -0.0534 -0.1985
    1SOL    HW2  414   0.805   4.030   0.573  1.5926  0.4825 -0.4086
    1SOL    HW3  415   0.771   4.128   0.463  0.7717  0.1615 -0.4432
    1SOL    MW4  416   0.791   4.047   0.489  0.0737  0.0458 -0.2585
    1SOL     OW  417   2.372   4.399   0.481 -0.2101  0.0361  0.2476
    1SOL    HW2  418   2.282   4.371   0.497 -0.3992  0.3589 -0.2235
    1SOL    HW3  419   2.364   4.467   0.414  0.6569 -2.3279 -2.3539
    1SOL    MW4  420   2.359   4.404   0.474 -0.1206 -0.2332 -0.1578
    1SOL     OW  421   1.885   4.397   0.312 -0.1090  0.6216 -0.6303
    1SOL    HW2  422   1.816   4.336   0.338  0.7264 -0.1399 -0.2036
    1SOL    HW3  423   1.921   4.360   0.232  0.2786  0.6575 -0.4710
    1SOL    MW4  424   1.880   4.384   0.305  0.0525  0.5255 -0.5530
    1SOL     OW  425   1.880   4.652   0.448 -0.1317  0.6337 -0.0709
    1SOL    HW2  426   1.799   4.658   0.498 -0.7070  0.0469 -0.9089
    1SOL    HW3  427   1.871   4.571   0.398  0.9870  0.5535 -0.1428
    1SOL    MW4  428   1.868   4.643   0.448 -0.0600  0.5455 -0.1910
    1SOL     OW  429   1.041   0.410   0.321  0.6050  0.7909  0.3576
    1SOL    HW2  430   0.999   0.464   0.388 -0.1246  0.1498  0.4321
    1SOL    HW3  431   1.135   0.423   0.334  0.4475  1.5550  0.7669
    1SOL    MW4  432   1.048   0.419   0.332  0.4880  0.8072  0.4214
    1SOL     OW  433   2.079   0.320   0.358 -0.1780 -0.0864  0.4772
    1SOL    HW2  434   2.001   0.300   0.411 -0.2697  0.0844  0.4070
    1SOL    HW3  435   2.141   0.251   0.381 -0.0438  0.2576  1.1609
    1SOL    MW4  436   2.077   0.308   0.368 -0.1724 -0.0185  0.5581
    1SOL     OW  437   2.447   1.181   0.448 -0.5520 -0.0677 -0.0513
    1SOL    HW2  438   2.446   1.249   0.381 -0.6175 -1.7286 -1.7673
    1SOL    HW3  439   2.535   1.145   0.444 -0.3308  0.3166  1.2730
    1SOL    MW4  440   2.458   1.185   0.439 -0.5314 -0.2363 -0.1030
    1SOL     OW  441   2.210   1.017   0.479 -0.2519 -0.1466  0.0282
    1SOL    HW2  442   2.217   0.942   0.420 -1.5193 -1.6033  1.6803
    1SOL    HW3  443   2.283   1.074   0.454  0.5143 -1.7467 -1.4998
    1SOL    MW4  444   2.221   1.014   0.468 -0.3178 -0.5499  0.0445
    1SOL     OW  445   1.972   1.145   0.578  0.2613  0.2441 -0.1397
    1SOL    HW2  446   1.900   1.082   0.579  0.5542 -0.0850  1.4730
    1SOL    HW3  447   2.045   1.097   0.539 -0.4564  0.6867 -2.1086
    1SOL    MW4  448   1.972   1.130   0.573  0.2053  0.2589 -0.1867
    1SOL     OW  449   2.694   1.087   0.522  0.1482 -0.8656 -0.2362
    1SOL    HW2  450   2.782   1.112   0.492 -0.1178 -1.9276 -1.9806
    1SOL    HW3  451   2.683   1.134   0.604  1.7271  0.5737 -0.8016
    1SOL    MW4  452   2.705   1.097   0.529  0.3216 -0.8157 -0.5410
    1SOL     OW  453   2.428   1.434   0.296  0.1016  0.0837 -0.1605
    1SOL    HW2  454   2.464   1.482   0.221  0.9675  1.0448  0.8519
    1SOL    HW3  455   2.344   1.475   0.313  0.6979  1.0463  0.5024
    1SOL    MW4  456   2.422   1.446   0.288  0.2947  0.3376  0.0605
    1SOL     OW  457   1.839   1.778   0.441 -0.3284 -0.5039  0.1557
    1SOL    HW2  458   1.874   1.867   0.442 -1.0162 -0.2270  0.0531
    1SOL    HW3  459   1.818   1.759   0.532 -1.6707  0.0464 -0.0225
    1SOL    MW4  460   1.841   1.787   0.453 -0.5962 -0.3946  0.1186
    1SOL     OW  461   2.353   2.381   0.534 -0.6260  0.4253 -0.1497
    1SOL    HW2  462   2.425   2.430   0.493  1.0556 -1.2074  0.7674
    1SOL    HW3  463   2.350   2.415   0.624 -1.1638  0.6339 -0.2426
    1SOL    MW4  464   2.362   2.392   0.541 -0.4752  0.2375 -0.0408
    1SOL     OW  465   1.864   3.034   0.418  0.1780  0.0124  0.0175
    1SOL    HW2  466   1.889   2.942   0.427  0.5698  0.0023 -1.0737
    1SOL    HW3  467   1.936   3.083   0.457  0.7489 -0.1003 -0.8737
    1SOL    MW4  468   1.877   3.028   0.424  0.3051 -0.0038 -0.2441
    1SOL     OW  469   1.518   2.737   0.469  0.2273 -0.6937 -0.3298
    1SOL    HW2  470   1.539   2.809   0.409 -1.2299  1.1904  1.3074
    1SOL    HW3  471   1.539   2.772   0.556  1.4911 -3.0566  0.3551
    1SOL    MW4  472   1.523   2.751   0.472  0.2018 -0.7570 -0.0234
    1SOL     OW  473   1.478   3.193   0.437  0.0573  0.3108  0.5480
    1SOL    HW2  474   1.527   3.117   0.405 -2.2003 -0.6308 -0.7822
    1SOL    HW3  475   1.540   3.265   0.435  1.1249 -0.6579 -1.9965
    1SOL    MW4  476   1.492   3.192   0.433 -0.0998  0.0589  0.0368
    1SOL     OW  477   1.023   1.830   0.374  0.2565  0.4977 -0.5383
    1SOL    HW2  478   1.041   1.913   0.417  1.1162  0.0434 -0.0097
    1SOL    HW3  479   1.089   1.770   0.408  0.5216 -0.0516 -1.9709
    1SOL    MW4  480   1.034   1.833   0.384  0.4048  0.3653 -0.6576
    1SOL     OW  481   3.521   2.223   0.254 -0.2690 -0.1318 -0.1190
    1SOL    HW2  482   3.500   2.212   0.161 -0.3011 -0.2397 -0.1000
    1SOL    HW3  483   3.476   2.150   0.296  0.4588 -0.5834 -0.1198
    1SOL    MW4  484   3.512   2.212   0.247 -0.1774 -0.2058 -0.1166
    1SOL     OW  485   2.163   2.400   0.334 -0.2136 -0.2287  0.4004
    1SOL    HW2  486   2.185   2.317   0.291 -1.0714 -0.3053  0.0978
    1SOL    HW3  487   2.208   2.396   0.418  0.1551 -0.7906  0.1773
    1SOL    MW4  488   2.172   2.388   0.340 -0.2782 -0.3128  0.3311
    1SOL     OW  489   1.289   2.297   0.393  0.5013  0.3297  0.4125
    1SOL    HW2  490   1.363   2.289   0.333 -0.0406 -0.0524 -0.2226
    1SOL    HW3  491   1.272   2.391   0.398 -0.1315  0.3042 -0.9045
    1SOL    MW4  492   1.296   2.308   0.386  0.3462  0.2761  0.1549
    1SOL     OW  493   1.626   2.977   0.336 -0.5547  0.2622  0.3601
    1SOL    HW2  494   1.629   2.983   0.240 -0.4031 -0.6460  0.3113
    1SOL    HW3  495   1.713   3.005   0.364 -0.3714 -0.1487  0.2005
    1SOL    MW4  496   1.638   2.982   0.327 -0.5105  0.0880  0.3326
    1SOL     OW  497   2.302   3.275   0.358  0.1501  0.0525 -0.0599
    1SOL    HW2  498   2.338   3.191   0.330 -0.0345  0.3060 -1.0499
    1SOL    HW3  499   2.360   3.303   0.429  0.2832 -0.8479  0.1954
    1SOL    MW4  500   2.315   3.267   0.364  0.1433 -0.0324 -0.1568
    1SOL     OW  501   1.749   3.782   0.299 -0.4214  0.3015  0.0064
    1SOL    HW2  502   1.826   3.729   0.318  0.0875  0.2451 -2.0681
    1SOL    HW3  503   1.675   3.729   0.329  0.1910 -0.8780 -0.5168
    1SOL    MW4  504   1.749   3.768   0.305 -0.2733  0.1388 -0.3363
    1SOL     OW  505   1.426   4.114   0.448  0.0958 -0.0080  0.0342
    1SOL    HW2  506   1.407   4.028   0.412 -0.3805  0.2983 -0.4467
    1SOL    HW3  507   1.366   4.174   0.403  0.6741  0.6329  0.0933
    1SOL    MW4  508   1.416   4.111   0.437  0.1092  0.1168 -0.0214
    1SOL     OW  509   1.685   4.235   0.434  0.1970  0.0122  0.1044
    1SOL    HW2  510   1.660   4.275   0.517 -1.5220  0.2260 -0.5041
    1SOL    HW3  511   1.608   4.186   0.407  0.5986  0.3013 -1.5959
    1SOL    MW4  512   1.672   4.234   0.441  0.0231  0.0782 -0.2002
    1SOL     OW  513   0.856   0.210   0.271  0.2280 -0.1744 -0.4934
    1SOL    HW2  514   0.897   0.138   0.319  0.0170  0.8215  1.2636
    1SOL    HW3  515   0.912   0.286   0.289 -0.7344  0.5592 -0.5077
    1SOL    MW4  516   0.869   0.211   0.280  0.0732  0.0537 -0.2635
    1SOL     OW  517   2.560   0.097   0.391 -0.1234  0.0033 -0.2086
    1SOL    HW2  518   2.558   0.191   0.375 -3.1226 -0.0655 -0.5549
    1SOL    HW3  519   2.534   0.087   0.482 -0.4536 -0.5187 -0.3538
    1SOL    MW4  520   2.556   0.108   0.401 -0.5629 -0.0746 -0.2734
    1SOL     OW  521   2.157   0.070   0.425 -0.4619  0.4788 -0.5219
    1SOL    HW2  522   2.206   0.006   0.374 -0.9649 -0.1096 -0.2774
    1SOL    HW3  523   2.065   0.048   0.411 -0.6669  1.6259 -1.0408
    1SOL    MW4  524   2.151   0.059   0.417 -0.5558  0.5524 -0.5581
    1SOL     OW  525   2.910   0.695   0.432 -0.3501 -0.3871 -0.2029
    1SOL    HW2  526   2.933   0.652   0.515 -0.3162  0.3810  0.1896
    1SOL    HW3  527   2.978   0.761   0.420 -1.5827  1.0064  0.2877
    1SOL    MW4  528   2.922   0.698   0.442 -0.5083 -0.1019 -0.0864
    1SOL     OW  529   2.449   0.629   0.448  0.3628 -0.1897  0.1276
    1SOL    HW2  530   2.528   0.682   0.457  1.3459 -1.5294 -0.4816
    1SOL    HW3  531   2.389   0.683   0.396  1.1174  0.5504  0.0278
    1SOL    MW4  532   2.451   0.643   0.442  0.5920 -0.2688  0.0341
    1SOL     OW  533   3.026   0.537   0.624  0.0648  0.3082 -0.2364
    1SOL    HW2  534   3.067   0.511   0.706 -1.1988  0.1146  0.3377
    1SOL    HW3  535   3.074   0.488   0.557  0.2126 -0.5604  0.4926
    1SOL    MW4  536   3.038   0.527   0.626 -0.0823  0.1680 -0.0645
    1SOL     OW  537   3.088   0.931   0.440 -0.5249  0.1594 -0.0119
    1SOL    HW2  538   3.111   0.936   0.532 -1.5768 -2.4511  0.4359
    1SOL    HW3  539   3.057   1.019   0.417 -0.7817  0.6758  2.2694
    1SOL    MW4  540   3.087   0.943   0.449 -0.6974 -0.1169  0.3482
    1SOL     OW  541   2.985   1.210   0.430  0.0075 -0.0099  0.6344
    1SOL    HW2  542   2.951   1.270   0.497  0.3175 -0.5314  1.2587
    1SOL    HW3  543   3.061   1.256   0.393 -0.1833  0.2903  0.6153
    1SOL    MW4  544   2.991   1.224   0.434  0.0231 -0.0392  0.7142
    1SOL     OW  545   2.774   1.862   0.344 -0.0592 -0.5526  0.1563
    1SOL    HW2  546   2.721   1.795   0.387  0.5517  0.9015  3.3354
    1SOL    HW3  547   2.730   1.944   0.366  0.5125  0.2746 -1.7285
    1SOL    MW4  548   2.761   1.864   0.353  0.0968 -0.2517  0.3271
    1SOL     OW  549   2.332   4.584   0.278 -0.7923  0.1103 -0.0312
    1SOL    HW2  550   2.411   4.637   0.288 -0.2020 -0.8003  0.2247
    1SOL    HW3  551   2.325   4.568   0.184 -1.0637  0.7772 -0.1250
    1SOL    MW4  552   2.341   4.589   0.267 -0.7501  0.0782 -0.0098
    1SOL     OW  553   1.912   1.526   0.357 -0.5529  0.0161  0.4635
    1SOL    HW2  554   1.850   1.501   0.289 -1.5222  0.1464  1.2833
    1SOL    HW3  555   1.875   1.606   0.394 -0.1911 -0.2192  1.3430
    1SOL    MW4  556   1.899   1.533   0.353 -0.6331  0.0023  0.6877
    1SOL     OW  557   2.205   1.575   0.314  0.6331  0.4816  0.0957
    1SOL    HW2  558   2.114   1.550   0.330  0.9850 -1.3574 -0.6361
    1SOL    HW3  559   2.211   1.666   0.345 -1.3953  0.5669  0.3049
    1SOL    MW4  560   2.194   1.584   0.320  0.4122  0.2502  0.0268
    1SOL     OW  561   2.427   2.119   0.476 -0.2074  0.1140 -0.3272
    1SOL    HW2  562   2.399   2.206   0.501  0.8197  0.1659  0.6786
    1SOL    HW3  563   2.521   2.127   0.461  0.1810 -1.1215  1.2513
    1SOL    MW4  564   2.436   2.131   0.477 -0.0205 -0.0424  0.0138
    1SOL     OW  565   2.699   2.135   0.407  0.0008 -0.4975 -0.1995
    1SOL    HW2  566   2.747   2.141   0.489 -0.5497  0.8170  0.0385
    1SOL    HW3  567   2.729   2.211   0.356 -1.1071 -0.1987 -0.4203
    1SOL    MW4  568   2.709   2.146   0.411 -0.2179 -0.2847 -0.1973
    1SOL     OW  569   2.482   2.776   0.458 -0.2945  0.0144  0.1424
    1SOL    HW2  570   2.410   2.727   0.418 -1.5885  1.5797  0.5033
    1SOL    HW3  571   2.441   2.827   0.528  1.4341 -0.3171  1.4450
    1SOL    MW4  572   2.467   2.776   0.462 -0.2372  0.1771  0.3619
    1SOL     OW  573   1.867   2.359   0.361  0.1483 -0.1754  0.0095
    1SOL    HW2  574   1.870   2.268   0.391  2.2828 -0.0711  0.1994
    1SOL    HW3  575   1.959   2.384   0.353 -0.4138  2.2640  0.8607
    1SOL    MW4  576   1.879   2.350   0.364  0.3557  0.1605  0.1469
    1SOL     OW  577   1.983   2.775   0.483 -0.1405  0.0784  0.6047
    1SOL    HW2  578   2.016   2.788   0.572 -0.3018  1.8969  0.4090
    1SOL    HW3  579   1.912   2.712   0.493 -0.1644  0.2745  1.7591
    1SOL    MW4  580   1.978   2.769   0.496 -0.1649  0.3443  0.7312
    1SOL     OW  581   1.963   3.610   0.390 -0.5007 -0.2862 -0.2418
    1SOL    HW2  582   1.962   3.526   0.345 -0.4672 -0.1446 -0.5100
    1SOL    HW3  583   2.003   3.592   0.475 -0.1962 -0.4766 -0.4244
    1SOL    MW4  584   1.968   3.597   0.396 -0.4562 -0.2925 -0.3012
    1SOL     OW  585   2.143   3.788   0.285  0.4558 -0.6032  0.2744
    1SOL    HW2  586   2.206   3.724   0.252  0.2129 -1.0788  0.7095
    1SOL    HW3  587   2.070   3.734   0.318 -0.9126 -0.0080 -1.6839
    1SOL    MW4  588   2.142   3.772   0.285  0.2432 -0.5875  0.0734
    1SOL     OW  589   1.544   3.618   0.446 -0.1416 -0.2404  0.4712
    1SOL    HW2  590   1.453   3.617   0.415  0.0548  0.4393 -0.1331
    1SOL    HW3  591   1.573   3.527   0.437 -0.1485 -0.0947 -1.1873
    1SOL    MW4  592   1.536   3.606   0.441 -0.1167 -0.1311  0.1726
    1SOL     OW  593   2.063   3.221   0.501 -0.3529 -0.2016 -0.0699
    1SOL    HW2  594   2.083   3.208   0.594 -0.3703  1.1298  0.1218
    1SOL    HW3  595   2.147   3.245   0.461 -0.7819  1.5274  0.0328
    1SOL    MW4  596   2.077   3.222   0.508 -0.4117  0.2019 -0.0311
    1SOL     OW  597   2.106   4.326   0.458  0.1342 -0.1787  0.2023
    1SOL    HW2  598   2.131   4.241   0.421 -1.4928 -0.4177 -0.3416
    1SOL    HW3  599   2.021   4.345   0.421  0.9442  2.2160 -0.4975
    1SOL    MW4  600   2.098   4.317   0.448  0.0267  0.1059  0.0382
    1SOL     OW  601   2.091   4.053   0.332  0.2695  0.4499 -0.1713
    1SOL    HW2  602   2.006   4.046   0.375  0.5571  0.8289  0.4799
    1SOL    HW3  603   2.104   3.969   0.289  0.3630 -0.2874  1.2495
    1SOL    MW4  604   2.082   4.041   0.332  0.3200  0.4025  0.1021
    1SOL     OW  605   2.516   4.155   0.495 -0.1188  0.0637  0.0457
    1SOL    HW2  606   2.453   4.083   0.502  0.0541 -0.1300 -0.3788
    1SOL    HW3  607   2.462   4.233   0.481 -0.2860 -0.0400  0.1157
    1SOL    MW4  608   2.501   4.156   0.494 -0.1183  0.0248 -0.0010
    1SOL     OW  609   2.492   3.385   0.531 -0.2254 -0.2193  0.0690
    1SOL    HW2  610   2.551   3.338   0.590  1.1649  1.2433 -0.1255
    1SOL    HW3  611   2.461   3.460   0.582  0.1651  0.4701 -0.6819
    1SOL    MW4  612   2.496   3.389   0.546  0.0095  0.0651 -0.0558
    1SOL     OW  613   2.290   3.991   0.514  0.7270 -0.0127  0.1699
    1SOL    HW2  614   2.312   3.899   0.496 -0.0965  0.0068 -0.9742
    1SOL    HW3  615   2.214   4.008   0.459  1.7391  1.7763 -0.6930
    1SOL    MW4  616   2.283   3.981   0.505  0.7517  0.2260 -0.0949
    1SOL     OW  617   2.232   0.777   0.313  0.3153 -0.0252  0.5426
    1SOL    HW2  618   2.189   0.786   0.228 -0.6115  3.1902  1.2817
    1SOL    HW3  619   2.173   0.721   0.364 -0.6197  0.4574  0.0140
    1SOL    MW4  620   2.218   0.771   0.308  0.0699  0.4628  0.5704
    1SOL     OW  621   1.583   0.341   0.505  0.0348  0.1470  0.3227
    1SOL    HW2  622   1.673   0.331   0.476  0.1212 -0.8064  0.8865
    1SOL    HW3  623   1.575   0.282   0.580 -0.9607  0.4671  0.4836
    1SOL    MW4  624   1.594   0.332   0.511 -0.0850  0.0634  0.4183
    1SOL     OW  625   3.163   0.386   0.440  0.1331  0.8887  0.1042
    1SOL    HW2  626   3.241   0.441   0.444  1.1010 -0.4906  0.7441
    1SOL    HW3  627   3.187   0.308   0.490 -1.1775 -0.1432 -0.8547
    1SOL    MW4  628   3.177   0.383   0.448  0.0880  0.5705  0.0621
    1SOL     OW  629   2.661   0.803   0.493  0.0617  0.2746 -0.4720
    1SOL    HW2  630   2.662   0.894   0.465 -0.6033  0.1366 -0.9814
    1SOL    HW3  631   2.752   0.774   0.486  0.1890  0.7567 -0.8126
    1SOL    MW4  632   2.673   0.811   0.488 -0.0093  0.3200 -0.5842
    1SOL     OW  633   3.361   0.786   0.413  0.4060  0.0871  0.1204
    1SOL    HW2  634   3.415   0.863   0.393  0.1785  0.0099 -0.8294
    1SOL    HW3  635   3.273   0.821   0.428  0.1731 -0.0413 -0.9129
    1SOL    MW4  636   3.357   0.801   0.412  0.3452  0.0600 -0.1413
    1SOL     OW  637   2.564   1.670   0.450  0.2301 -0.4660  0.0201
    1SOL    HW2  638   2.619   1.665   0.528 -0.5960  0.4966  0.6672
    1SOL    HW3  639   2.538   1.579   0.433  0.7026 -0.7201  0.6449
    1SOL    MW4  640   2.568   1.657   0.458  0.1833 -0.3726  0.1879
    1SOL     OW  641   3.209   1.341   0.339 -0.1889  0.1984  0.4600
    1SOL    HW2  642   3.221   1.436   0.340  1.9617 -0.0348  0.0417
    1SOL    HW3  643   3.222   1.317   0.247 -0.2565 -0.5399  0.6409
    1SOL    MW4  644   3.213   1.351   0.327  0.0863  0.0702  0.4286
    1SOL     OW  645   3.204   1.635   0.402 -0.2202 -0.0733 -0.1519
    1SOL    HW2  646   3.152   1.714   0.392 -1.3551 -0.5824  1.3395
    1SOL    HW3  647   3.289   1.665   0.433 -0.1556  0.6603 -1.0437
    1SOL    MW4  648   3.208   1.649   0.405 -0.3614 -0.0435 -0.0728
    1SOL     OW  649   2.923   0.191   0.869  0.3156  0.1349 -0.1021
    1SOL    HW2  650   2.894   0.248   0.941 -0.6972 -1.1504  0.5163
    1SOL    HW3  651   2.895   0.237   0.790 -0.4881  0.5147  0.3942
    1SOL    MW4  652   2.916   0.205   0.868  0.0761  0.0154  0.0449
    1SOL     OW  653   3.089   2.052   0.625 -0.2044 -0.0497 -0.2085
    1SOL    HW2  654   2.998   2.060   0.652 -0.3648  0.7354 -0.9672
    1SOL    HW3  655   3.130   1.998   0.693 -1.1060  0.0536  0.4150
    1SOL    MW4  656   3.083   2.046   0.638 -0.3443  0.0677 -0.2264
    1SOL     OW  657   2.804   2.403   0.289 -0.4056  0.2063 -0.2104
    1SOL    HW2  658   2.854   2.387   0.209 -0.2339 -0.1208 -0.0390
    1SOL    HW3  659   2.853   2.470   0.336 -0.4645  0.3420 -0.3417
    1SOL    MW4  660   2.817   2.410   0.284 -0.3905  0.1812 -0.2051
    1SOL     OW  661   2.319   1.804   0.463 -0.3521  0.3588 -0.0060
    1SOL    HW2  662   2.398   1.751   0.451 -0.8088 -0.3900  0.2870
    1SOL    HW3  663   2.346   1.892   0.437  0.5695  0.1012  0.0448
    1SOL    MW4  664   2.333   1.808   0.458 -0.2909  0.2261  0.0393
    1SOL     OW  665   2.608   2.528   0.479  0.4930 -0.1157  0.2386
    1SOL    HW2  666   2.575   2.617   0.472 -2.1636 -0.9877  0.9026
    1SOL    HW3  667   2.640   2.506   0.391  0.9883  1.4114  0.0375
    1SOL    MW4  668   2.607   2.537   0.466  0.2081 -0.0288  0.2997
    1SOL     OW  669   2.836   3.204   0.474 -0.4789  0.1703  0.2227
    1SOL    HW2  670   2.783   3.259   0.416 -0.0990  0.9605  0.6116
    1SOL    HW3  671   2.797   3.216   0.560  0.0352  0.3646  0.4267
    1SOL    MW4  672   2.824   3.213   0.478 -0.3607  0.3002  0.3009
    1SOL     OW  673   2.689   3.426   0.318  0.0276 -0.2903 -0.1994
    1SOL    HW2  674   2.748   3.487   0.362 -0.0932 -0.7845  0.6655
    1SOL    HW3  675   2.628   3.398   0.386  1.1801 -2.7318 -0.1014
    1SOL    MW4  676   2.689   3.430   0.333  0.1636 -0.6776 -0.0724
    1SOL     OW  677   3.117   3.283   0.491 -0.2069 -0.1151  0.2408
    1SOL    HW2  678   3.024   3.282   0.468 -0.6806  0.4782  2.0323
    1SOL    HW3  679   3.119   3.266   0.585  1.6586 -2.5155 -0.1537
    1SOL    MW4  680   3.105   3.280   0.500 -0.0231 -0.3536  0.4251
    1SOL     OW  681   2.310   3.546   0.290  0.0063 -0.2610  0.4328
    1SOL    HW2  682   2.398   3.557   0.252 -0.4891  0.5328 -0.5190
    1SOL    HW3  683   2.298   3.451   0.295  0.3517 -0.3769 -0.7645
    1SOL    MW4  684   2.320   3.535   0.286 -0.0136 -0.1714  0.1493
    1SOL     OW  685   1.921   3.347   0.317  0.3754 -0.2169  0.1410
    1SOL    HW2  686   1.950   3.321   0.230  0.6404 -1.2241  0.5180
    1SOL    HW3  687   1.981   3.301   0.377 -0.5809 -0.5279  0.8754
    1SOL    MW4  688   1.933   3.337   0.314  0.2842 -0.3908  0.2876
    1SOL     OW  689   3.535   3.519   0.172  0.3393 -0.3897  0.2422
    1SOL    HW2  690   3.463   3.482   0.223  0.6469  0.1395  1.0679
    1SOL    HW3  691   3.498   3.531   0.085  0.1992 -2.5444 -0.0171
    1SOL    MW4  692   3.520   3.515   0.167  0.3612 -0.6042  0.3169
    1SOL     OW  693   2.638   3.828   0.473  0.6692 -0.2434 -0.1897
    1SOL    HW2  694   2.550   3.790   0.469  0.8613 -0.7044 -0.0397
    1SOL    HW3  695   2.635   3.902   0.411  0.6881 -1.3138 -1.4817
    1SOL    MW4  696   2.626   3.833   0.464  0.6974 -0.4454 -0.3404
    1SOL     OW  697   2.379   3.734   0.502 -0.2937 -0.6402 -0.5787
    1SOL    HW2  698   2.383   3.679   0.581 -2.6649  1.1336  0.8565
    1SOL    HW3  699   2.338   3.677   0.436  0.0052 -1.5357 -0.0078
    1SOL    MW4  700   2.374   3.719   0.504 -0.5667 -0.5243 -0.3140
    1SOL     OW  701   3.599   3.997   0.497  0.4727  0.1056  0.0413
    1SOL    HW2  702   3.537   4.063   0.468 -0.3580 -0.4197  0.6112
    1SOL    HW3  703   3.589   3.925   0.434  0.6707  0.1161 -0.0035
    1SOL    MW4  704   3.590   3.996   0.484  0.3891  0.0381  0.1106
    1SOL     OW  705   2.640   4.419   0.541  0.7347 -0.3208 -0.2286
    1SOL    HW2  706   2.546   4.418   0.529  0.7897 -1.0275 -0.5884
    1SOL    HW3  707   2.675   4.446   0.456  0.8371  0.3879  0.0346
    1SOL    MW4  708   2.632   4.423   0.528  0.7555 -0.3209 -0.2413
    1SOL     OW  709   3.398   4.435   0.479 -0.2751 -0.2235 -0.3681
    1SOL    HW2  710   3.487   4.448   0.446 -0.1043  1.8427  0.8460
    1SOL    HW3  711   3.349   4.511   0.448 -0.8722  0.1672  1.4656
    1SOL    MW4  712   3.404   4.446   0.470 -0.3312  0.1006  0.0340
    1SOL     OW  713   3.124   4.613   0.486 -0.3303 -0.2883 -0.0290
    1SOL    HW2  714   3.068   4.561   0.543 -1.4275 -0.8164 -1.5416
    1SOL    HW3  715   3.062   4.662   0.430  0.7024  0.0801 -0.8703
    1SOL    MW4  716   3.108   4.613   0.486 -0.3388 -0.3095 -0.3395
    1SOL     OW  717   2.896   4.192   0.507  0.1419  0.4158 -0.3848
    1SOL    HW2  718   2.926   4.277   0.538 -0.0155  0.6839 -0.9647
    1SOL    HW3  719   2.976   4.148   0.476  0.0528  0.8382 -1.2355
    1SOL    MW4  720   2.910   4.197   0.507  0.1094  0.5069 -0.5736
    1SOL     OW  721   2.551   0.375   0.386 -0.6170  0.0234 -0.1183
    1SOL    HW2  722   2.628   0.428   0.365  0.0956 -0.3806  1.4226
    1SOL    HW3  723   2.480   0.438   0.395  0.1497  0.7022  1.3313
    1SOL    MW4  724   2.552   0.390   0.384 -0.4222  0.0596  0.2763
    1SOL     OW  725   3.411   0.526   0.499  0.3624  0.0431  0.4254
    1SOL    HW2  726   3.489   0.501   0.448 -0.9092  0.2118 -1.6702
    1SOL    HW3  727   3.395   0.617   0.474 -1.7536 -0.6475 -0.8431
    1SOL    MW4  728   3.419   0.535   0.489 -0.0849 -0.0257 -0.0184
    1SOL     OW  729   2.846   0.161   0.428  0.0829  0.3700 -0.1523
    1SOL    HW2  730   2.767   0.113   0.403 -2.4095  4.2822 -0.2454
    1SOL    HW3  731   2.855   0.229   0.361  3.8563 -0.2827 -0.4024
    1SOL    MW4  732   2.837   0.164   0.415  0.2518  0.8000 -0.1976
    1SOL     OW  733   3.633   0.404   0.346  0.5013 -0.0469 -0.7917
    1SOL    HW2  734   3.708   0.458   0.373 -0.0437  0.3948 -0.1116
    1SOL    HW3  735   3.660   0.364   0.264  0.9280  1.2760 -1.3126
    1SOL    MW4  736   3.647   0.406   0.339  0.4857  0.1859 -0.7707
    1SOL     OW  737   2.894   0.422   0.349  0.2132  0.1804 -0.0317
    1SOL    HW2  738   2.986   0.401   0.363  0.3663 -0.2551 -1.4919
    1SOL    HW3  739   2.885   0.514   0.373  0.9912  0.1691  0.2975
    1SOL    MW4  740   2.905   0.431   0.354  0.3362  0.1215 -0.1810
    1SOL     OW  741   3.445   1.752   0.473 -0.2271  0.2599  0.4222
    1SOL    HW2  742   3.478   1.759   0.563 -3.0503  0.2549  1.4870
    1SOL    HW3  743   3.459   1.839   0.436 -0.3424  0.6653  1.3166
    1SOL    MW4  744   3.451   1.764   0.480 -0.6149  0.3128  0.6806
    1SOL     OW  745   3.077   1.896   0.397 -0.1048 -0.1693 -0.1854
    1SOL    HW2  746   3.063   1.941   0.480 -0.2053 -1.0563  0.2874
    1SOL    HW3  747   2.990   1.891   0.357 -0.3384 -1.2451  0.4436
    1SOL    MW4  748   3.064   1.901   0.403 -0.1490 -0.4283 -0.0401
    1SOL     OW  749   3.590   1.009   0.457 -0.0552  0.1778  0.1483
    1SOL    HW2  750   3.546   1.094   0.456 -1.3169 -0.4392  1.1055
    1SOL    HW3  751   3.576   0.976   0.546  2.7937  0.1660  0.6552
    1SOL    MW4  752   3.582   1.016   0.469  0.1540  0.0949  0.3415
    1SOL     OW  753   3.350   2.028   0.401 -0.2889 -0.0348  0.3347
    1SOL    HW2  754   3.258   2.003   0.403 -0.1830 -0.3401  1.6899
    1SOL    HW3  755   3.371   2.053   0.491  0.9966 -0.1174  0.0746
    1SOL    MW4  756   3.341   2.028   0.413 -0.1054 -0.0861  0.4792
    1SOL     OW  757   3.218   2.302   0.611  0.2700  0.1320 -0.3350
    1SOL    HW2  758   3.184   2.212   0.615  1.3456 -0.2363  1.4713
    1SOL    HW3  759   3.279   2.307   0.685  0.2286  2.3605 -0.4306
    1SOL    MW4  760   3.222   2.291   0.622  0.4065  0.3772 -0.1094
    1SOL     OW  761   3.455   2.800   0.466  0.3492  0.3006 -0.8178
    1SOL    HW2  762   3.492   2.717   0.498  0.7812 -0.0545 -2.2033
    1SOL    HW3  763   3.371   2.775   0.429  0.0105  0.6559 -0.2938
    1SOL    MW4  764   3.449   2.786   0.465  0.3617  0.3006 -0.9315
    1SOL     OW  765   2.341   3.004   0.317  0.1886 -0.2950 -0.6721
    1SOL    HW2  766   2.283   2.960   0.255 -0.7139  0.0598 -0.0993
    1SOL    HW3  767   2.405   2.937   0.342 -0.5346 -0.9644 -0.6061
    1SOL    MW4  768   2.342   2.989   0.312 -0.0260 -0.3366 -0.5878
    1SOL     OW  769   3.223   2.656   0.360  0.2416  0.1205  0.0602
    1SOL    HW2  770   3.134   2.624   0.374  0.7089 -1.3570 -0.3471
    1SOL    HW3  771   3.277   2.578   0.351  1.6464  0.9953  0.6071
    1SOL    MW4  772   3.218   2.642   0.360  0.4888  0.0412  0.0786
    1SOL     OW  773   2.918   2.882   0.726  0.7466  0.5962  0.5563
    1SOL    HW2  774   2.947   2.879   0.635  0.4130 -1.6862  0.4772
    1SOL    HW3  775   2.984   2.831   0.773 -0.4594 -0.4206  1.1619
    1SOL    MW4  776   2.931   2.875   0.720  0.5436  0.1612  0.6258
    1SOL     OW  777   3.268   0.165   0.551 -0.0610  0.0086  0.0663
    1SOL    HW2  778   3.231   0.191   0.635 -0.8478  1.4989 -0.7347
    1SOL    HW3  779   3.216   0.089   0.524  0.4031 -0.6774  1.0544
    1SOL    MW4  780   3.256   0.158   0.558 -0.1035  0.1147  0.0910
    1SOL     OW  781   3.053   3.794   0.499 -0.2923 -0.3418  0.1973
    1SOL    HW2  782   3.126   3.735   0.517 -0.0983 -0.1824 -0.0642
    1SOL    HW3  783   3.023   3.821   0.586 -1.3678 -2.0061  0.3703
    1SOL    MW4  784   3.059   3.790   0.513 -0.4084 -0.5405  0.1857
    1SOL     OW  785   3.565   3.739   0.353 -0.0143  0.5858 -0.2356
    1SOL    HW2  786   3.554   3.709   0.262 -0.8679  0.2006 -0.0117
    1SOL    HW3  787   3.480   3.722   0.394  0.5617  0.1968  0.8062
    1SOL    MW4  788   3.552   3.733   0.346 -0.0513  0.4838 -0.0686
    1SOL     OW  789   3.547   3.273   0.446  0.1619 -0.3376  0.1537
    1SOL    HW2  790   3.633   3.311   0.430 -0.5609  0.9801 -0.7180
    1SOL    HW3  791   3.552   3.185   0.409  1.3283 -0.4929  0.6794
    1SOL    MW4  792   3.559   3.266   0.439  0.2208 -0.1843  0.1081
    1SOL     OW  793   3.337   3.423   0.378  0.0354 -0.1243  0.2995
    1SOL    HW2  794   3.263   3.366   0.399  0.2753 -0.9631 -1.0608
    1SOL    HW3  795   3.412   3.380   0.418 -0.0632  0.2901  0.9555
    1SOL    MW4  796   3.337   3.410   0.386  0.0539 -0.1807  0.2066
    1SOL     OW  797   3.159   4.053   0.437 -0.0214 -0.2949  0.0024
    1SOL    HW2  798   3.162   4.080   0.529 -0.3258  0.4916 -0.2120
    1SOL    HW3  799   3.131   3.962   0.439 -0.3039 -0.1945  0.6746
    1SOL    MW4  800   3.156   4.045   0.449 -0.0989 -0.1779  0.0628
    1SOL     OW  801   2.568   3.649   0.190 -0.3062 -0.1620 -0.1054
    1SOL    HW2  802   2.616   3.713   0.138 -1.5696  0.4720 -0.5242
    1SOL    HW3  803   2.634   3.587   0.220  0.8109  0.9072 -0.3438
    1SOL    MW4  804   2.583   3.649   0.187 -0.3254  0.0627 -0.1921
    1SOL     OW  805   4.399   0.164   0.145 -0.3020  0.3637  0.1565
    1SOL    HW2  806   4.376   0.192   0.056  1.4091  0.5215 -0.2534
    1SOL    HW3  807   4.387   0.069   0.144  2.3033 -0.0003 -1.0871
    1SOL    MW4  808   4.394   0.155   0.133  0.2670  0.3365 -0.0616
    1SOL     OW  809   3.741   0.051   0.314 -0.8158 -0.3710  0.0172
    1SOL    HW2  810   3.684   0.087   0.382 -0.1060  1.0959 -0.1343
    1SOL    HW3  811   3.828   0.048   0.355 -0.4771  0.0745 -0.6434
    1SOL    MW4  812   3.745   0.056   0.328 -0.6771 -0.1187 -0.0899
    1SOL     OW  813   3.569   0.171   0.501  0.1481  0.4285 -0.1980
    1SOL    HW2  814   3.475   0.153   0.507  0.3152 -0.3892  0.1064
    1SOL    HW3  815   3.575   0.257   0.459 -0.7402  0.6421  0.1099
    1SOL    MW4  816   3.558   0.180   0.496  0.0532  0.3488 -0.1172
    1SOL     OW  817   3.832   0.539   0.475  0.2244  0.5494  0.3635
    1SOL    HW2  818   3.801   0.503   0.558  0.4890  0.9336  0.6307
    1SOL    HW3  819   3.885   0.469   0.436 -0.3641  0.1628  0.2529
    1SOL    MW4  820   3.835   0.525   0.481  0.1817  0.5491  0.3842
    1SOL     OW  821   3.987   0.372   0.327 -0.1980 -0.0075 -0.7597
    1SOL    HW2  822   4.069   0.324   0.335 -0.4984 -0.4740 -0.4250
    1SOL    HW3  823   3.940   0.327   0.257 -0.6117 -0.3992 -0.2341
    1SOL    MW4  824   3.991   0.360   0.319 -0.2921 -0.1207 -0.6462
    1SOL     OW  825   4.137   0.637   0.314 -0.1621  0.1089  0.2942
    1SOL    HW2  826   4.084   0.700   0.364 -0.8538 -0.8028  0.7133
    1SOL    HW3  827   4.077   0.565   0.295  0.9797 -1.0315  0.9477
    1SOL    MW4  828   4.122   0.636   0.318 -0.1025 -0.1619  0.4357
    1SOL     OW  829   3.858   1.109   0.453  0.3540 -0.3826 -0.5292
    1SOL    HW2  830   3.848   1.203   0.464  0.3806 -0.4473  0.0407
    1SOL    HW3  831   3.769   1.077   0.441  0.2833 -0.3714 -0.0394
    1SOL    MW4  832   3.845   1.117   0.453  0.3481 -0.3896 -0.3894
    1SOL     OW  833   3.817   1.378   0.502 -0.2606 -0.5765 -0.1400
    1SOL    HW2  834   3.744   1.431   0.469 -0.7649 -0.7165  0.7534
    1SOL    HW3  835   3.895   1.424   0.471 -0.7163  0.0145 -0.4233
    1SOL    MW4  836   3.818   1.391   0.494 -0.3877 -0.5170 -0.0595
    1SOL     OW  837   3.766   1.968   0.513  0.2701 -0.7417 -0.3924
    1SOL    HW2  838   3.729   2.048   0.475 -0.9534 -1.3299 -0.4937
    1SOL    HW3  839   3.806   1.997   0.595  0.1920  0.0354 -0.6200
    1SOL    MW4  840   3.766   1.983   0.519  0.0987 -0.7168 -0.4358
    1SOL     OW  841   3.435   1.253   0.456 -0.3430 -0.0016 -0.2810
    1SOL    HW2  842   3.423   1.256   0.551 -0.5102 -1.3574 -0.2514
    1SOL    HW3  843   3.348   1.271   0.420 -0.2097  0.8601 -0.1935
    1SOL    MW4  844   3.422   1.256   0.464 -0.3476 -0.0669 -0.2656
    1SOL     OW  845   3.582   1.515   0.390  0.1677  0.3413  0.0802
    1SOL    HW2  846   3.516   1.446   0.397  0.5951 -0.1252 -0.5087
    1SOL    HW3  847   3.533   1.596   0.408 -0.6589  0.0416 -0.7554
    1SOL    MW4  848   3.567   1.517   0.393  0.1149  0.2402 -0.1077
    1SOL     OW  849   3.630   2.559   0.490 -0.0829 -0.0349 -0.1631
    1SOL    HW2  850   3.619   2.537   0.583 -1.8103  0.5376 -0.2201
    1SOL    HW3  851   3.551   2.525   0.448  0.2883  0.4862 -1.2979
    1SOL    MW4  852   3.618   2.552   0.497 -0.2620  0.1094 -0.3203
    1SOL     OW  853   3.869   2.718   0.452  0.0880 -0.1695  0.3052
    1SOL    HW2  854   3.792   2.662   0.447  0.9472 -1.4138  0.9044
    1SOL    HW3  855   3.943   2.658   0.458  1.1468  1.0144 -0.6779
    1SOL    MW4  856   3.869   2.703   0.452  0.3412 -0.1776  0.2545
    1SOL     OW  857   2.950   2.607   0.416 -0.1659  0.3632 -0.2318
    1SOL    HW2  858   2.930   2.701   0.415  1.7701  0.8574  2.3035
    1SOL    HW3  859   2.951   2.583   0.508  1.7893 -1.5945 -0.7044
    1SOL    MW4  860   2.948   2.616   0.428  0.3474  0.1702  0.0404
    1SOL     OW  861   2.842   3.620   0.440  0.5590  0.0558  0.7697
    1SOL    HW2  862   2.927   3.662   0.447  0.6817 -0.2544  1.1565
    1SOL    HW3  863   2.779   3.692   0.445  0.8520  0.5776 -2.0771
    1SOL    MW4  864   2.845   3.635   0.441  0.6137  0.0837  0.4452
    1SOL     OW  865   3.222   3.015   0.429  0.1124  0.0329  0.1551
    1SOL    HW2  866   3.294   3.000   0.368 -0.4792 -1.2602 -0.2492
    1SOL    HW3  867   3.227   3.108   0.450  0.7896  0.3327 -1.2819
    1SOL    MW4  868   3.232   3.025   0.424  0.1237 -0.0982 -0.0878
    1SOL     OW  869   3.819   2.949   0.256 -0.3831  0.2454 -0.6169
    1SOL    HW2  870   3.875   2.902   0.194 -0.2398 -0.4191  0.0107
    1SOL    HW3  871   3.837   2.908   0.341 -0.7801  0.9676 -0.1816
    1SOL    MW4  872   3.828   2.937   0.259 -0.4165  0.2530 -0.4767
    1SOL     OW  873   3.578   3.024   0.355  0.3330  0.3821  0.2540
    1SOL    HW2  874   3.662   3.012   0.313  0.5303  0.5657  0.5936
    1SOL    HW3  875   3.553   2.937   0.386  0.3670  0.3175  0.0983
    1SOL    MW4  876   3.586   3.011   0.354  0.3636  0.3977  0.2782
    1SOL     OW  877   4.128   3.738   0.357 -0.1909 -0.0439 -0.3736
    1SOL    HW2  878   4.039   3.706   0.372  0.3553 -1.2932  0.3458
    1SOL    HW3  879   4.149   3.708   0.268 -0.1505 -0.5637 -0.1900
    1SOL    MW4  880   4.119   3.730   0.347 -0.1135 -0.2775 -0.2544
    1SOL     OW  881   3.403   2.431   0.402  0.4268  0.0636  0.1868
    1SOL    HW2  882   3.330   2.394   0.453 -0.2573  1.3842  0.2141
    1SOL    HW3  883   3.430   2.361   0.344 -1.1863 -0.3196 -0.1434
    1SOL    MW4  884   3.397   2.417   0.401  0.1237  0.1874  0.1468
    1SOL     OW  885   3.308   3.678   0.484 -0.3876  0.1933 -0.4040
    1SOL    HW2  886   3.322   3.594   0.442 -0.5115 -0.6470  1.1952
    1SOL    HW3  887   3.315   3.660   0.578  0.1701  2.0638 -0.0511
    1SOL    MW4  888   3.311   3.665   0.491 -0.3302  0.3293 -0.1464
    1SOL     OW  889   4.370   3.659   0.506  0.5052  0.1637 -0.1506
    1SOL    HW2  890   4.304   3.720   0.472  0.2439 -0.5708 -1.0141
    1SOL    HW3  891   4.338   3.573   0.479  1.2910 -0.2851  0.3352
    1SOL    MW4  892   4.357   3.655   0.498  0.5741  0.0074 -0.2004
    1SOL     OW  893   3.420   4.183   0.404  0.1794 -0.2311  0.2009
    1SOL    HW2  894   3.406   4.273   0.434  0.0360  0.2203 -1.2082
    1SOL    HW3  895   3.333   4.145   0.401  0.1450 -0.1260 -0.1179
    1SOL    MW4  896   3.407   4.190   0.408  0.1562 -0.1578 -0.0271
    1SOL     OW  897   3.866   4.357   0.468 -0.5022 -0.1657  0.1831
    1SOL    HW2  898   3.861   4.271   0.426 -0.2235 -0.5710  0.9868
    1SOL    HW3  899   3.846   4.341   0.560 -0.7374  0.6719  0.2832
    1SOL    MW4  900   3.863   4.344   0.474 -0.4964 -0.1082  0.3023
    1SOL     OW  901   0.135   0.049   0.470 -0.0940  0.3223  0.0045
    1SOL    HW2  902   0.082  -0.020   0.429 -1.3267  1.7449 -0.8348
    1SOL    HW3  903   0.093   0.063   0.555 -0.2496  0.5111 -0.1038
    1SOL    MW4  904   0.122   0.042   0.476 -0.2772  0.5349 -0.1206
    1SOL     OW  905   3.953   0.801   0.469  0.0856  0.0315  0.2219
    1SOL    HW2  906   3.892   0.871   0.492  0.6684  0.5610  0.1987
    1SOL    HW3  907   3.899   0.724   0.458 -0.6996  0.6915 -0.6818
    1SOL    MW4  908   3.938   0.800   0.471  0.0589  0.1884  0.0996
    1SOL     OW  909   4.303   1.248   0.279  0.2532 -0.4738  0.0728
    1SOL    HW2  910   4.370   1.214   0.220  1.1238 -1.5680  1.6461
    1SOL    HW3  911   4.247   1.173   0.298 -0.2679 -0.0325  0.2954
    1SOL    MW4  912   4.304   1.234   0.274  0.2995 -0.5599  0.3098
    1SOL     OW  913   4.217   0.244   0.360 -0.0616  0.2024  0.1978
    1SOL    HW2  914   4.267   0.220   0.282 -0.3138  1.6030 -0.4016
    1SOL    HW3  915   4.264   0.319   0.396 -0.2666 -0.0923  1.0982
    1SOL    MW4  916   4.230   0.250   0.355 -0.1221  0.3483  0.2375
    1SOL     OW  917   4.337   0.867   0.299 -0.3399 -0.2534  0.1033
    1SOL    HW2  918   4.280   0.932   0.340  0.4637  0.6627 -0.1898
    1SOL    HW3  919   4.278   0.801   0.263 -1.0561 -1.2241  2.9300
    1SOL    MW4  920   4.322   0.867   0.300 -0.3281 -0.2606  0.4376
    1SOL     OW  921   3.643   4.463   0.359 -0.0907  0.4453 -0.1652
    1SOL    HW2  922   3.721   4.422   0.397 -0.5166 -0.2854 -0.0678
    1SOL    HW3  923   3.671   4.552   0.338  0.8434  0.1130 -0.3600
    1SOL    MW4  924   3.657   4.470   0.362 -0.0234  0.3052 -0.1781
    1SOL     OW  925   4.147   1.042   0.411  0.2341  0.9552 -0.3834
    1SOL    HW2  926   4.055   1.067   0.399 -0.0654 -0.3803 -0.9695
    1SOL    HW3  927   4.158   1.037   0.506 -0.5080  0.4423 -0.3134
    1SOL    MW4  928   4.136   1.044   0.422  0.0968  0.7113 -0.4515
    1SOL     OW  929   4.477   1.110   0.136  0.4433 -0.5101 -0.1091
    1SOL    HW2  930   4.452   1.027   0.176  0.8583  0.0390  1.2931
    1SOL    HW3  931   4.550   1.142   0.188 -0.3220  1.2004 -0.0436
    1SOL    MW4  932   4.483   1.103   0.148  0.3972 -0.2121  0.0845
    1SOL     OW  933   3.994   2.264   0.494  0.2071  0.4488 -0.6208
    1SOL    HW2  934   3.907   2.253   0.456 -0.3297  0.0105  0.6807
    1SOL    HW3  935   4.016   2.356   0.477 -0.6348  0.6367 -0.7260
    1SOL    MW4  936   3.985   2.275   0.487  0.0250  0.4156 -0.4630
    1SOL     OW  937   4.323   1.410   0.516  0.0437 -0.0787  0.1719
    1SOL    HW2  938   4.319   1.367   0.430 -5.0439  0.1926  0.1180
    1SOL    HW3  939   4.306   1.340   0.579  0.3213  0.3624  0.7418
    1SOL    MW4  940   4.320   1.395   0.513 -0.5913  0.0154  0.2399
    1SOL     OW  941   4.348   2.464   0.461  0.6359 -0.3328 -0.3796
    1SOL    HW2  942   4.399   2.448   0.541  0.9158  0.0544 -0.4854
    1SOL    HW3  943   4.329   2.376   0.428  2.5473 -0.4648 -1.1846
    1SOL    MW4  944   4.352   2.450   0.467  0.9251 -0.2990 -0.4998
    1SOL     OW  945   4.262   1.913   0.480  0.0634  0.0958  0.4820
    1SOL    HW2  946   4.332   1.847   0.486 -0.1329 -0.0910  0.7516
    1SOL    HW3  947   4.182   1.861   0.478 -0.1174  0.3486  1.2334
    1SOL    MW4  948   4.261   1.897   0.480  0.0138  0.1043  0.6167
    1SOL     OW  949   0.115   2.538   0.380  0.4700 -0.3193 -0.0848
    1SOL    HW2  950   0.107   2.631   0.399  0.1933 -0.2115 -0.7345
    1SOL    HW3  951   0.026   2.504   0.391  0.2256 -0.1821 -1.5904
    1SOL    MW4  952   0.102   2.546   0.384  0.4012 -0.2871 -0.3692
    1SOL     OW  953   3.952   3.207   0.323  0.3537  0.2024 -0.3616
    1SOL    HW2  954   3.892   3.282   0.320  0.2763  0.1210 -0.8949
    1SOL    HW3  955   3.902   3.136   0.283  0.7433  0.0864 -0.6352
    1SOL    MW4  956   3.937   3.208   0.318  0.3951  0.1764 -0.4680
    1SOL     OW  957   4.076   2.540   0.518 -0.5800 -0.0391  0.3396
    1SOL    HW2  958   4.091   2.512   0.608  0.0807  1.0052  0.5609
    1SOL    HW3  959   4.160   2.525   0.473 -0.6860  0.1217  0.0830
    1SOL    MW4  960   4.089   2.534   0.524 -0.5064  0.1199  0.3349
    1SOL     OW  961   0.156   3.637   0.513 -0.6030  0.4692 -0.2675
    1SOL    HW2  962   0.064   3.662   0.516 -0.2397  2.2274 -2.3748
    1SOL    HW3  963   0.199   3.707   0.463  1.6113 -1.0868 -0.6501
    1SOL    MW4  964   0.150   3.650   0.507 -0.2629  0.4959 -0.5960
    1SOL     OW  965   3.652   4.219   0.220 -0.2921  0.1440  0.6959
    1SOL    HW2  966   3.654   4.312   0.240 -0.1704  0.3324 -0.1936
    1SOL    HW3  967   3.564   4.191   0.244 -0.6631  0.7049 -0.0077
    1SOL    MW4  968   3.641   4.227   0.226 -0.3250  0.2427  0.4857
    1SOL     OW  969   0.551   3.203   0.483  0.2847  0.0046  0.4872
    1SOL    HW2  970   0.501   3.224   0.562  0.5356 -0.5530  0.7954
    1SOL    HW3  971   0.573   3.288   0.445  1.5568  0.3175  1.9033
    1SOL    MW4  972   0.547   3.217   0.488  0.4855 -0.0279  0.7147
    1SOL     OW  973   3.843   3.678   0.415  0.4730  0.3375  0.7606
    1SOL    HW2  974   3.757   3.708   0.384  0.3713  0.5182  1.2142
    1SOL    HW3  975   3.836   3.679   0.511  1.1029  0.7044  0.8063
    1SOL    MW4  976   3.831   3.682   0.424  0.5426  0.4096  0.8265
    1SOL     OW  977   4.144   3.125   0.515 -0.0412 -0.3742 -0.2053
    1SOL    HW2  978   4.116   3.170   0.595  0.0263 -0.3660 -0.1863
    1SOL    HW3  979   4.090   3.163   0.446  0.3590  0.0889 -0.2643
    1SOL    MW4  980   4.133   3.136   0.516  0.0210 -0.3119 -0.2106
    1SOL     OW  981   4.409   4.095   0.469  0.5899  0.0227  0.3518
    1SOL    HW2  982   4.327   4.050   0.447 -0.7010  2.3405  0.2946
    1SOL    HW3  983   4.440   4.051   0.548 -1.7685  0.4226  1.5456
    1SOL    MW4  984   4.402   4.083   0.476  0.1078  0.3815  0.5018
    1SOL     OW  985   4.150   3.981   0.446 -0.4385 -0.0078 -0.4456
    1SOL    HW2  986   4.119   3.895   0.417 -2.0093 -0.4880  2.4727
    1SOL    HW3  987   4.083   4.042   0.415 -1.0937 -0.2759  0.4161
    1SOL    MW4  988   4.137   3.978   0.438 -0.7319 -0.1063  0.0531
    1SOL     OW  989   3.848   4.095   0.380 -0.1704  0.0860 -0.1943
    1SOL    HW2  990   3.775   4.069   0.437 -1.1303  0.2109 -1.3440
    1SOL    HW3  991   3.806   4.127   0.300  1.1604 -0.9672 -1.3560
    1SOL    MW4  992   3.833   4.096   0.377 -0.1214 -0.0358 -0.4992
    1SOL     OW  993   4.102   4.462   0.341  0.1379 -0.1132  0.0538
    1SOL    HW2  994   4.176   4.428   0.391 -1.8883 -0.3753  2.9570
    1SOL    HW3  995   4.024   4.428   0.386 -1.7979  1.8151 -1.7241
    1SOL    MW4  996   4.101   4.453   0.353 -0.3843  0.1073  0.2022
    1SOL     OW  997   0.263   4.607   0.866  0.2397  0.2756 -0.4546
    1SOL    HW2  998   0.260   4.527   0.813  0.6463 -0.2634  0.3290
    1SOL    HW3  999   0.184   4.655   0.841 -1.1883 -1.4040  0.6704
    1SOL    MW4 1000   0.252   4.603   0.856  0.1049 -0.0176 -0.2028
    1SOL     OW 1001   0.052   0.066   0.728  0.0557  0.1085  0.4937
    1SOL    HW2 1002  -0.030   0.026   0.758  0.1868  0.1108  0.8630
    1SOL    HW3 1003   0.052   0.153   0.768  0.0785  0.2370  0.2163
    1SOL    MW4 1004   0.041   0.072   0.738  0.0760  0.1258  0.5059
    1SOL     OW 1005   0.017   0.322   0.826  0.5107  0.0001 -0.2051
    1SOL    HW2 1006   0.003   0.312   0.920 -2.5322  1.7238 -0.3966
    1SOL    HW3 1007   0.099   0.371   0.819 -0.9505  2.8513  1.7209
    1SOL    MW4 1008   0.026   0.327   0.838 -0.0835  0.6037  0.0238
    1SOL     OW 1009   0.259   0.486   0.738 -0.1980  0.1791 -0.3418
    1SOL    HW2 1010   0.338   0.446   0.775  1.0804  2.4710 -0.4842
    1SOL    HW3 1011   0.265   0.579   0.762 -3.9103  0.0747  1.4437
    1SOL    MW4 1012   0.270   0.493   0.746 -0.5191  0.4677 -0.1250
    1SOL     OW 1013   0.234   0.754   0.840 -0.2532  0.0599  0.2566
    1SOL    HW2 1014   0.242   0.742   0.935  0.6289  1.1633  0.3324
    1SOL    HW3 1015   0.153   0.805   0.830 -0.5597 -0.3949  0.3788
    1SOL    MW4 1016   0.224   0.759   0.851 -0.1773  0.1455  0.2826
    1SOL     OW 1017   4.487   0.904   0.770 -0.5151  0.1013  0.2266
    1SOL    HW2 1018   4.416   0.845   0.795  1.6176 -2.3882  0.6554
    1SOL    HW3 1019   4.499   0.889   0.676 -0.4016  0.3317  0.2046
    1SOL    MW4 1020   4.479   0.894   0.761 -0.2187 -0.1968  0.2802
    1SOL     OW 1021   4.488   1.153   0.897 -0.4402  0.1102  0.1763
    1SOL    HW2 1022   4.519   1.140   0.987 -0.8641 -0.6955  0.2072
    1SOL    HW3 1023   4.483   1.065   0.861  1.0837  0.5229 -1.0977
    1SOL    MW4 1024   4.492   1.140   0.904 -0.2950  0.0584  0.0123
    1SOL     OW 1025   0.214   1.254   0.758 -0.1618  0.5149  0.4004
    1SOL    HW2 1026   0.152   1.212   0.818  0.9012 -0.2678  0.9550
    1SOL    HW3 1027   0.217   1.196   0.682  0.7772 -0.0461  0.8690
    1SOL    MW4 1028   0.206   1.241   0.756  0.1023  0.3376  0.5354
    1SOL     OW 1029   0.185   1.506   0.873  0.1896 -0.1199 -0.4609
    1SOL    HW2 1030   0.258   1.552   0.831 -1.0224  1.4051 -0.9630
    1SOL    HW3 1031   0.177   1.424   0.824  2.2842 -0.8425  0.3504
    1SOL    MW4 1032   0.193   1.501   0.861  0.3061 -0.0139 -0.4200
    1SOL     OW 1033   4.480   1.686   0.791 -0.9070 -0.2959  0.1638
    1SOL    HW2 1034   4.396   1.641   0.802 -1.0146 -0.0111  0.5141
    1SOL    HW3 1035   4.543   1.629   0.836 -0.6997 -1.1638 -1.2061
    1SOL    MW4 1036   4.478   1.672   0.798 -0.8938 -0.3730  0.0293
    1SOL     OW 1037   0.003   1.939   0.864  0.1632  0.3255 -0.4957
    1SOL    HW2 1038   0.090   1.962   0.830  1.0545 -1.2846  0.6075
    1SOL    HW3 1039  -0.006   1.846   0.845 -1.4322  0.5412 -0.8129
    1SOL    MW4 1040   0.014   1.930   0.857  0.0706  0.1415 -0.3920
    1SOL     OW 1041   0.242   2.006   0.746  0.7649 -0.0289 -0.1731
    1SOL    HW2 1042   0.234   2.100   0.762  0.4723  0.2152 -1.7166
    1SOL    HW3 1043   0.246   1.997   0.651  0.9574 -1.5714 -0.0457
    1SOL    MW4 1044   0.242   2.017   0.735  0.7517 -0.2003 -0.3599
    1SOL     OW 1045   0.214   2.271   0.824 -0.0937  0.1132 -0.4543
    1SOL    HW2 1046   0.212   2.282   0.919  0.4687  1.9728 -0.6306
    1SOL    HW3 1047   0.276   2.338   0.794  0.2246 -0.8922 -2.0747
    1SOL    MW4 1048   0.222   2.281   0.832  0.0225  0.2260 -0.6913
    1SOL     OW 1049   4.482   2.398   0.717 -0.1214  0.2080 -0.3203
    1SOL    HW2 1050   4.409   2.355   0.762 -0.2601 -0.6268 -1.3386
    1SOL    HW3 1051   4.558   2.345   0.740  0.0235  0.5609  0.0163
    1SOL    MW4 1052   4.482   2.385   0.726 -0.1205  0.1445 -0.4102
    1SOL     OW 1053   4.480   2.649   0.796 -0.1295 -0.0750 -0.2096
    1SOL    HW2 1054   4.490   2.632   0.890 -2.0158  1.1617  0.2318
    1SOL    HW3 1055   4.486   2.562   0.756 -0.9883 -0.8062  1.2019
    1SOL    MW4 1056   4.482   2.635   0.803 -0.4917 -0.0081  0.0349
    1SOL     OW 1057   0.195   2.796   0.696  0.2219  0.2232  0.2034
    1SOL    HW2 1058   0.118   2.755   0.735 -0.5803  0.9709 -0.5627
    1SOL    HW3 1059   0.171   2.810   0.604  0.2728  2.8050  0.5385
    1SOL    MW4 1060   0.182   2.793   0.689  0.1228  0.6626  0.1466
    1SOL     OW 1061   0.223   3.053   0.834 -0.0108  0.0034  0.2761
    1SOL    HW2 1062   0.204   3.052   0.927 -0.2215  0.7219  0.2457
    1SOL    HW3 1063   0.212   2.962   0.806 -0.0744 -0.1897  0.9222
    1SOL    MW4 1064   0.219   3.041   0.842 -0.0470  0.0725  0.3573
    1SOL     OW 1065   0.040   3.221   0.702  0.6186 -0.0059  0.0644
    1SOL    HW2 1066   0.111   3.168   0.738  0.5217 -1.2517 -1.4915
    1SOL    HW3 1067   0.083   3.285   0.646  0.5523 -0.5739 -0.6480
    1SOL    MW4 1068   0.055   3.222   0.700  0.5970 -0.2451 -0.2349
    1SOL     OW 1069   0.038   3.446   0.892  0.0262  0.0690  0.1533
    1SOL    HW2 1070  -0.038   3.498   0.864 -0.6489 -0.2436  1.3558
    1SOL    HW3 1071   0.036   3.369   0.836 -1.8128 -0.9637  1.5871
    1SOL    MW4 1072   0.028   3.443   0.881 -0.3056 -0.1085  0.5012
    1SOL     OW 1073   0.234   3.580   0.766 -0.1016 -0.1479 -0.1977
    1SOL    HW2 1074   0.171   3.532   0.819 -1.1490  1.1441 -0.2422
    1SOL    HW3 1075   0.189   3.595   0.683  0.5070  0.1990 -0.4693
    1SOL    MW4 1076   0.220   3.576   0.762 -0.1595  0.0684 -0.2394
    1SOL     OW 1077   0.210   3.867   0.810  0.4617  0.3418 -0.4051
    1SOL    HW2 1078   0.208   3.879   0.905 -2.9734 -0.2353 -0.3318
    1SOL    HW3 1079   0.200   3.773   0.797 -1.7340  0.6661 -1.3278
    1SOL    MW4 1080   0.209   3.856   0.820 -0.2812  0.3083 -0.5172
    1SOL     OW 1081   0.002   4.029   0.719  0.0840 -0.4607  0.3370
    1SOL    HW2 1082  -0.067   3.986   0.768 -1.1173  0.1847 -0.7380
    1SOL    HW3 1083   0.080   3.976   0.734 -0.8956 -1.8184  0.6919
    1SOL    MW4 1084   0.004   4.017   0.727 -0.2037 -0.5546  0.2419
    1SOL     OW 1085   0.028   4.259   0.840 -0.0279 -0.4393 -0.0577
    1SOL    HW2 1086   0.018   4.252   0.935  2.7620  1.5186  0.4605
    1SOL    HW3 1087   0.016   4.170   0.808 -1.6275 -1.0169  2.0481
    1SOL    MW4 1088   0.025   4.246   0.848  0.1291 -0.2570  0.2885
    1SOL     OW 1089   0.232   4.379   0.705 -0.2814  0.5325 -0.1436
    1SOL    HW2 1090   0.155   4.340   0.747 -0.8336  1.7886  0.0439
    1SOL    HW3 1091   0.227   4.351   0.614 -0.3616 -0.2947  0.1190
    1SOL    MW4 1092   0.221   4.370   0.699 -0.3648  0.5889 -0.0842
    1SOL     OW 1093   0.690   4.614   0.858 -0.5172  0.1403 -0.0472
    1SOL    HW2 1094   0.673   4.631   0.951  0.1016  0.1631  0.0629
    1SOL    HW3 1095   0.623   4.666   0.812  0.8130  2.2392  0.3123
    1SOL    MW4 1096   0.679   4.623   0.864 -0.2600  0.4201  0.0147
    1SOL     OW 1097   0.479   0.079   0.741  0.0401  0.6070  0.1279
    1SOL    HW2 1098   0.406   0.032   0.782  0.4322  1.2215  1.5536
    1SOL    HW3 1099   0.479   0.048   0.651 -0.3573 -1.3863  0.7682
    1SOL    MW4 1100   0.469   0.069   0.735  0.0394  0.4251  0.4005
    1SOL     OW 1101   0.474   0.312   0.874  0.4802 -0.2409  0.3673
    1SOL    HW2 1102   0.542   0.359   0.827 -0.8450  0.3275 -1.0285
    1SOL    HW3 1103   0.473   0.224   0.835  0.5288 -0.3056  0.5095
    1SOL    MW4 1104   0.483   0.306   0.863  0.3118 -0.1744  0.2019
    1SOL     OW 1105   0.676   0.482   0.762 -0.3462 -0.2691 -0.6414
    1SOL    HW2 1106   0.759   0.443   0.789 -0.4857 -1.4107 -1.8052
    1SOL    HW3 1107   0.671   0.463   0.668 -1.8296 -0.0463 -0.6084
    1SOL    MW4 1108   0.687   0.474   0.753 -0.5603 -0.3904 -0.7905
    1SOL     OW 1109   0.717   0.747   0.833  0.2275  0.1307  0.1713
    1SOL    HW2 1110   0.635   0.784   0.800 -0.1711 -1.1990 -0.3940
    1SOL    HW3 1111   0.719   0.658   0.797  2.7809  0.7291 -1.2830
    1SOL    MW4 1112   0.706   0.740   0.824  0.5118  0.0342 -0.0951
    1SOL     OW 1113   0.488   0.863   0.755  0.1145  0.2056  0.1938
    1SOL    HW2 1114   0.458   0.950   0.780 -0.5793 -0.3196  1.2017
    1SOL    HW3 1115   0.414   0.805   0.775  0.3296 -0.5338 -1.0588
    1SOL    MW4 1116   0.474   0.867   0.761  0.0513  0.0387  0.1616
    1SOL     OW 1117   0.445   1.134   0.836  0.2201  0.6968 -0.4898
    1SOL    HW2 1118   0.518   1.172   0.787 -0.7455  0.8775 -1.8186
    1SOL    HW3 1119   0.369   1.185   0.809 -0.3855  0.5926  0.9811
    1SOL    MW4 1120   0.445   1.145   0.826  0.0128  0.7069 -0.4710
    1SOL     OW 1121   0.669   1.249   0.729  0.4207 -0.0480 -0.1334
    1SOL    HW2 1122   0.654   1.338   0.759  0.5028 -0.0733 -0.0187
    1SOL    HW3 1123   0.665   1.255   0.633 -0.0480 -0.0065 -0.1132
    1SOL    MW4 1124   0.666   1.261   0.720  0.3696 -0.0459 -0.1155
    1SOL     OW 1125   0.634   1.506   0.827  0.1834 -0.1001  0.1874
    1SOL    HW2 1126   0.658   1.505   0.920 -0.0476 -0.0330  0.2473
    1SOL    HW3 1127   0.552   1.554   0.823 -0.2029 -0.7631  0.0445
    1SOL    MW4 1128   0.627   1.512   0.839  0.1020 -0.1787  0.1764
    1SOL     OW 1129   0.397   1.641   0.748  0.2624  0.4973  0.3234
    1SOL    HW2 1130   0.430   1.726   0.778  0.5286  0.8451 -0.9157
    1SOL    HW3 1131   0.382   1.654   0.654  0.4162 -0.8672  0.1101
    1SOL    MW4 1132   0.399   1.654   0.739  0.3178  0.3632  0.1317
    1SOL     OW 1133   0.472   1.883   0.856  0.3787  0.0498 -0.3434
    1SOL    HW2 1134   0.475   1.882   0.952  1.2494  1.3225 -0.3520
    1SOL    HW3 1135   0.388   1.923   0.835  0.0587 -0.4924 -0.1235
    1SOL    MW4 1136   0.462   1.888   0.866  0.4514  0.1459 -0.3155
    1SOL     OW 1137   0.704   2.011   0.718  0.2281 -0.5530 -0.1168
    1SOL    HW2 1138   0.622   1.985   0.761 -0.3045  0.6337 -0.3905
    1SOL    HW3 1139   0.690   1.991   0.625 -0.0061  0.2397 -0.2589
    1SOL    MW4 1140   0.691   2.005   0.711  0.1269 -0.2918 -0.1717
    1SOL     OW 1141   0.657   2.286   0.801  0.3067  0.2298 -0.2371
    1SOL    HW2 1142   0.661   2.274   0.896  1.0634  0.1092 -0.2828
    1SOL    HW3 1143   0.689   2.204   0.764 -1.1250 -0.1808 -0.6238
    1SOL    MW4 1144   0.661   2.274   0.809  0.2177  0.1595 -0.2941
    1SOL     OW 1145   0.409   2.437   0.717  0.3257 -0.2585 -0.2181
    1SOL    HW2 1146   0.486   2.381   0.726  0.2986 -0.2717 -0.0638
    1SOL    HW3 1147   0.398   2.447   0.623  1.1391  0.5987 -0.2376
    1SOL    MW4 1148   0.418   2.431   0.706  0.4294 -0.1473 -0.2003
    1SOL     OW 1149   0.425   2.698   0.833 -0.0150  0.1201 -0.7749
    1SOL    HW2 1150   0.418   2.607   0.804  1.5596 -0.1936 -0.2339
    1SOL    HW3 1151   0.351   2.743   0.791 -0.9448 -1.4570 -0.8398
    1SOL    MW4 1152   0.414   2.692   0.823  0.0701 -0.1292 -0.7121
    1SOL     OW 1153   0.676   2.828   0.730  0.2335  0.0945  0.1857
    1SOL    HW2 1154   0.750   2.777   0.764  0.7877  1.1647  0.6001
    1SOL    HW3 1155   0.599   2.777   0.755  0.8649 -1.6872 -1.3660
    1SOL    MW4 1156   0.675   2.814   0.738  0.3899  0.0005  0.0357
    1SOL     OW 1157   0.706   3.096   0.844 -0.3765  0.5921  0.4887
    1SOL    HW2 1158   0.691   3.007   0.812 -0.4585  0.6060  0.4866
    1SOL    HW3 1159   0.630   3.146   0.812 -0.9384  0.3960  1.4866
    1SOL    MW4 1160   0.694   3.091   0.836 -0.4615  0.5682  0.6201
    1SOL     OW 1161   0.451   3.194   0.731 -0.4990 -0.0296 -0.0174
    1SOL    HW2 1162   0.449   3.275   0.783  0.0067  0.0864 -0.1729
    1SOL    HW3 1163   0.379   3.141   0.765 -1.7808  1.0976 -0.8943
    1SOL    MW4 1164   0.441   3.198   0.742 -0.6014  0.1347 -0.1536
    1SOL     OW 1165   0.455   3.450   0.847  0.2564  0.1338 -0.3935
    1SOL    HW2 1166   0.452   3.469   0.941  0.3038  2.1048 -0.7541
    1SOL    HW3 1167   0.376   3.492   0.812  0.4082 -0.3129 -1.2766
    1SOL    MW4 1168   0.444   3.458   0.855  0.2827  0.3350 -0.5575
    1SOL     OW 1169   0.673   3.597   0.748 -0.3316 -0.1575  0.2307
    1SOL    HW2 1170   0.586   3.559   0.758 -0.7942  0.2538 -1.9265
    1SOL    HW3 1171   0.667   3.682   0.791 -1.2148  0.1511 -0.4896
    1SOL    MW4 1172   0.661   3.603   0.755 -0.5091 -0.0622 -0.1490
    1SOL     OW 1173   0.652   3.853   0.832  0.3654 -0.2719 -0.5840
    1SOL    HW2 1174   0.730   3.905   0.815  0.2344  0.6185  1.3990
    1SOL    HW3 1175   0.582   3.900   0.788  0.6144  0.0375 -0.6547
    1SOL    MW4 1176   0.653   3.866   0.824  0.3809 -0.1135 -0.3316
    1SOL     OW 1177   0.441   3.999   0.702  0.8133  0.0173 -0.1175
    1SOL    HW2 1178   0.434   4.091   0.726  0.4502  0.2750 -1.1737
    1SOL    HW3 1179   0.359   3.960   0.731  0.0720  0.4741 -1.5269
    1SOL    MW4 1180   0.429   4.006   0.709  0.6676  0.1111 -0.4428
    1SOL     OW 1181   0.440   4.241   0.842 -0.5000  0.1019 -0.0107
    1SOL    HW2 1182   0.442   4.231   0.937 -0.9098  0.0496 -0.0037
    1SOL    HW3 1183   0.376   4.312   0.827  0.4459  0.9308 -0.1834
    1SOL    MW4 1184   0.432   4.249   0.852 -0.4292  0.2036 -0.0326
    1SOL     OW 1185   0.665   4.369   0.726  0.3404 -0.3082  0.4283
    1SOL    HW2 1186   0.595   4.312   0.756 -0.4776  0.1040 -0.6810
    1SOL    HW3 1187   0.657   4.448   0.780 -0.1943 -0.1676  0.1425
    1SOL    MW4 1188   0.655   4.372   0.737  0.1619 -0.2356  0.2443
    1SOL     OW 1189   1.109   4.617   0.830  0.1536  0.0439  0.2224
    1SOL    HW2 1190   1.188   4.670   0.819  0.3689 -0.1610  0.7432
    1SOL    HW3 1191   1.044   4.657   0.772  0.4270  0.6530  0.3370
    1SOL    MW4 1192   1.111   4.629   0.821  0.2180  0.0968  0.3062
    1SOL     OW 1193   0.893   0.080   0.713  0.7146  0.1665 -0.4005
    1SOL    HW2 1194   0.898   0.168   0.749  1.1935  0.9384 -2.3291
    1SOL    HW3 1195   0.829   0.035   0.768  0.9634  1.4999  1.0061
    1SOL    MW4 1196   0.885   0.085   0.725  0.8106  0.4443 -0.4694
    1SOL     OW 1197   0.920   0.352   0.848  0.4181 -0.1491 -0.3391
    1SOL    HW2 1198   0.926   0.363   0.943  0.2686  0.7737 -0.4299
    1SOL    HW3 1199   1.010   0.364   0.817  0.0367  2.3759 -0.5804
    1SOL    MW4 1200   0.933   0.355   0.856  0.3480  0.3058 -0.3829
    1SOL     OW 1201   1.173   0.519   0.756 -0.4327 -0.5502  0.0038
    1SOL    HW2 1202   1.245   0.468   0.793 -1.2184 -1.5471  0.1723
    1SOL    HW3 1203   1.213   0.566   0.682  0.6681 -0.1433  0.8480
    1SOL    MW4 1204   1.188   0.519   0.751 -0.3912 -0.6280  0.1375
    1SOL     OW 1205   1.160   0.778   0.866 -0.0106 -0.2234  0.5539
    1SOL    HW2 1206   1.134   0.767   0.957  0.5962  0.7297  0.8460
    1SOL    HW3 1207   1.158   0.690   0.829 -2.3384 -0.3636  0.9194
    1SOL    MW4 1208   1.156   0.765   0.873 -0.2377 -0.1161  0.6406
    1SOL     OW 1209   0.914   0.882   0.703  0.0880 -0.2270  0.0502
    1SOL    HW2 1210   0.989   0.843   0.747  0.2081 -0.4328 -0.3300
    1SOL    HW3 1211   0.838   0.845   0.747  0.2083 -0.0982  0.3671
    1SOL    MW4 1212   0.914   0.872   0.715  0.1198 -0.2371  0.0419
    1SOL     OW 1213   0.924   1.147   0.815  0.5495 -0.7240 -0.1692
    1SOL    HW2 1214   0.912   1.057   0.785  0.0105 -0.5339 -0.5391
    1SOL    HW3 1215   0.841   1.190   0.796  1.3225  0.2570 -1.4835
    1SOL    MW4 1216   0.912   1.141   0.808  0.5804 -0.5696 -0.3914
    1SOL     OW 1217   1.160   1.288   0.762 -0.1554 -0.0275  0.1928
    1SOL    HW2 1218   1.081   1.234   0.764 -0.3925  0.3237  0.3236
    1SOL    HW3 1219   1.187   1.287   0.670 -0.3231 -0.1346  0.1440
    1SOL    MW4 1220   1.153   1.281   0.750 -0.2087  0.0048  0.2036
    1SOL     OW 1221   1.084   1.536   0.852  0.0446  0.2950 -0.4969
    1SOL    HW2 1222   1.004   1.555   0.803 -0.3966  0.1375  0.1580
    1SOL    HW3 1223   1.108   1.447   0.825 -0.4235  0.0543 -0.1178
    1SOL    MW4 1224   1.077   1.527   0.842 -0.0753  0.2425 -0.3605
    1SOL     OW 1225   0.864   1.606   0.712  0.4619  0.0546  0.1923
    1SOL    HW2 1226   0.884   1.690   0.752 -0.5126  0.8645 -1.0006
    1SOL    HW3 1227   0.780   1.581   0.750  0.5343 -0.1645  0.2081
    1SOL    MW4 1228   0.856   1.614   0.723  0.3429  0.1326  0.0370
    1SOL     OW 1229   0.903   1.844   0.826  0.2731 -0.0698  0.0711
    1SOL    HW2 1230   0.899   1.862   0.920  0.5721 -0.0536  0.0795
    1SOL    HW3 1231   0.838   1.904   0.788 -0.8067 -1.0026  0.4064
    1SOL    MW4 1232   0.894   1.854   0.834  0.1701 -0.1905  0.1165
    1SOL     OW 1233   1.107   2.051   0.762  0.0249  0.6794  0.1850
    1SOL    HW2 1234   1.089   2.138   0.797  0.3719  0.6408  0.4598
    1SOL    HW3 1235   1.044   1.994   0.806  0.4973  0.6229  0.7841
    1SOL    MW4 1236   1.096   2.055   0.772  0.1330  0.6666  0.3003
    1SOL     OW 1237   1.098   2.326   0.818  0.5310  0.3125 -0.3084
    1SOL    HW2 1238   1.125   2.325   0.909  0.2145 -2.2005 -0.1938
    1SOL    HW3 1239   1.180   2.325   0.768  0.7188 -1.6720 -0.0025
    1SOL    MW4 1240   1.112   2.326   0.823  0.5139 -0.2806 -0.2529
    1SOL     OW 1241   0.855   2.452   0.745  0.4474 -0.0535  0.0764
    1SOL    HW2 1242   0.937   2.416   0.778  0.5226 -0.0160 -0.0698
    1SOL    HW3 1243   0.788   2.391   0.775  0.5141 -0.0089  0.3156
    1SOL    MW4 1244   0.857   2.439   0.754  0.4661 -0.0424  0.0886
    1SOL     OW 1245   0.889   2.705   0.837  0.4979  0.1935 -0.0224
    1SOL    HW2 1246   0.887   2.727   0.930 -0.4723  0.6784 -0.1520
    1SOL    HW3 1247   0.868   2.612   0.834  3.3387 -0.5178  0.4359
    1SOL    MW4 1248   0.886   2.696   0.849  0.7448  0.1638  0.0210
    1SOL     OW 1249   1.095   2.823   0.689  0.0981 -0.1490  0.1409
    1SOL    HW2 1250   1.030   2.774   0.740  1.0472 -1.1635  0.3932
    1SOL    HW3 1251   1.090   2.786   0.601  0.5339 -0.4180  0.2301
    1SOL    MW4 1252   1.086   2.812   0.684  0.2809 -0.3183  0.1860
    1SOL     OW 1253   1.107   3.077   0.843  0.4071  0.0545  0.2620
    1SOL    HW2 1254   1.066   3.146   0.792  0.3123 -0.1102  0.1137
    1SOL    HW3 1255   1.100   2.999   0.788  1.3643  0.1341  0.0168
    1SOL    MW4 1256   1.101   3.076   0.829  0.5209  0.0434  0.2100
    1SOL     OW 1257   0.932   3.267   0.725  0.1297  0.2202  0.3628
    1SOL    HW2 1258   0.932   3.348   0.775  1.0601  0.1387  0.4925
    1SOL    HW3 1259   0.853   3.220   0.756 -0.4701  1.1156  0.1973
    1SOL    MW4 1260   0.921   3.271   0.736  0.1733  0.3273  0.3580
    1SOL     OW 1261   0.926   3.513   0.839  0.0629 -0.4255  0.1067
    1SOL    HW2 1262   0.992   3.560   0.789  0.2993  1.6048  2.2415
    1SOL    HW3 1263   0.843   3.536   0.797  0.3485  0.4091 -0.0077
    1SOL    MW4 1264   0.924   3.522   0.827  0.1317 -0.0472  0.3732
    1SOL     OW 1265   1.125   3.650   0.714 -0.0138  0.5059 -0.0718
    1SOL    HW2 1266   1.193   3.597   0.757 -0.4284  0.2673  0.2938
    1SOL    HW3 1267   1.149   3.649   0.622 -0.1936 -0.6027 -0.1177
    1SOL    MW4 1268   1.137   3.643   0.708 -0.0921  0.3281 -0.0296
    1SOL     OW 1269   1.092   3.913   0.757  0.5277  0.0339 -0.3476
    1SOL    HW2 1270   1.094   3.909   0.853 -2.9662  0.0937 -0.2067
    1SOL    HW3 1271   1.120   3.826   0.729  0.9832 -0.1785  0.7487
    1SOL    MW4 1272   1.096   3.901   0.766  0.1268  0.0138 -0.1844
    1SOL     OW 1273   0.849   4.020   0.748 -0.3096 -0.2618 -0.0108
    1SOL    HW2 1274   0.872   4.104   0.788  0.4731  0.2294 -1.4473
    1SOL    HW3 1275   0.931   3.972   0.743 -0.3381 -0.1778 -1.3457
    1SOL    MW4 1276   0.862   4.025   0.753 -0.2102 -0.1860 -0.3765
    1SOL     OW 1277   0.903   4.289   0.839  0.4631  0.3231 -0.1375
    1SOL    HW2 1278   0.963   4.329   0.776  0.8671  0.2489  0.2010
    1SOL    HW3 1279   0.817   4.324   0.814  0.4514 -0.6063 -1.4532
    1SOL    MW4 1280   0.900   4.299   0.827  0.5148  0.1912 -0.2664
    1SOL     OW 1281   1.131   4.377   0.706  0.1284 -0.0600  0.0543
    1SOL    HW2 1282   1.211   4.332   0.735 -0.1377 -0.7242 -0.2245
    1SOL    HW3 1283   1.132   4.460   0.753  0.4368 -0.5194  0.8808
    1SOL    MW4 1284   1.142   4.382   0.716  0.1339 -0.2084  0.1265
    1SOL     OW 1285   1.518   4.582   0.813 -0.3234  0.6934  0.0918
    1SOL    HW2 1286   1.505   4.571   0.907 -0.1498  2.0111  0.2805
    1SOL    HW3 1287   1.448   4.641   0.786  0.4820  1.4653 -0.3369
    1SOL    MW4 1288   1.507   4.588   0.822 -0.1942  0.9694  0.0601
    1SOL     OW 1289   1.320   0.113   0.790  0.0895 -0.1380 -0.5804
    1SOL    HW2 1290   1.332   0.195   0.837  2.0240 -0.6573 -0.1065
    1SOL    HW3 1291   1.293   0.140   0.702 -0.2597  0.9597 -0.1506
    1SOL    MW4 1292   1.318   0.127   0.785  0.2987 -0.0617 -0.4612
    1SOL     OW 1293   1.392   0.373   0.888 -0.3933  0.3063 -0.2592
    1SOL    HW2 1294   1.384   0.390   0.982  0.5253  1.8580 -0.4416
    1SOL    HW3 1295   1.485   0.384   0.869 -0.5608 -0.0342 -1.3402
    1SOL    MW4 1296   1.403   0.377   0.898 -0.2941  0.4661 -0.4258
    1SOL     OW 1297   1.654   0.434   0.860 -0.3552 -0.2654  0.0563
    1SOL    HW2 1298   1.652   0.529   0.864 -0.0735 -0.3292  2.0933
    1SOL    HW3 1299   1.714   0.414   0.788  0.5894  1.0832  0.4671
    1SOL    MW4 1300   1.662   0.444   0.851 -0.1932 -0.0959  0.3793
    1SOL     OW 1301   1.616   0.708   0.881 -0.2676 -0.1437  0.1255
    1SOL    HW2 1302   1.693   0.746   0.837  0.7520 -2.2209  0.0705
    1SOL    HW3 1303   1.547   0.773   0.868  1.3645  1.5833 -0.1787
    1SOL    MW4 1304   1.617   0.722   0.874  0.0823 -0.1899  0.0781
    1SOL     OW 1305   1.419   0.885   0.792 -0.2173 -0.4973 -0.2030
    1SOL    HW2 1306   1.399   0.976   0.816  0.0896 -0.2439 -0.9007
    1SOL    HW3 1307   1.339   0.837   0.811 -0.6433  0.0582 -0.5656
    1SOL    MW4 1308   1.406   0.891   0.798 -0.2331 -0.3906 -0.3428
    1SOL     OW 1309   1.356   1.137   0.879 -0.1942  0.4290  0.2518
    1SOL    HW2 1310   1.428   1.191   0.845 -0.4632  0.1941 -0.7007
    1SOL    HW3 1311   1.277   1.185   0.856 -0.3925  0.1687  0.3826
    1SOL    MW4 1312   1.355   1.151   0.872 -0.2559  0.3637  0.1434
    1SOL     OW 1313   1.599   1.251   0.790  0.2336 -0.2030  0.1074
    1SOL    HW2 1314   1.578   1.341   0.813 -0.4754 -0.4818  0.5712
    1SOL    HW3 1315   1.584   1.246   0.696 -2.4948 -0.5581  0.5083
    1SOL    MW4 1316   1.594   1.262   0.781 -0.2198 -0.2867  0.2216
    1SOL     OW 1317   1.580   1.532   0.834 -0.3043  0.1679 -0.0434
    1SOL    HW2 1318   1.601   1.538   0.927  0.6048  0.6587 -0.2734
    1SOL    HW3 1319   1.490   1.564   0.828  0.5696  2.8814  0.3083
    1SOL    MW4 1320   1.571   1.537   0.845 -0.0690  0.5907 -0.0274
    1SOL     OW 1321   1.330   1.643   0.743  0.4110 -0.7571 -0.3349
    1SOL    HW2 1322   1.360   1.731   0.766  0.0479 -0.3102 -1.5097
    1SOL    HW3 1323   1.253   1.627   0.798  1.0053 -0.7086  0.5232
    1SOL    MW4 1324   1.324   1.652   0.753  0.4416 -0.6918 -0.3767
    1SOL     OW 1325   1.343   1.929   0.816 -0.2568 -0.2372  0.4893
    1SOL    HW2 1326   1.341   1.954   0.909  1.2551  1.5353  0.0795
    1SOL    HW3 1327   1.260   1.961   0.781 -0.5366 -0.3061  1.0817
    1SOL    MW4 1328   1.331   1.937   0.824 -0.0942 -0.0125  0.5134
    1SOL     OW 1329   1.573   2.061   0.717  0.3606 -0.0874 -0.0474
    1SOL    HW2 1330   1.500   2.011   0.753  0.7203 -0.5372  0.0707
    1SOL    HW3 1331   1.550   2.076   0.626 -0.0233  0.0482  0.0695
    1SOL    MW4 1332   1.561   2.056   0.710  0.3575 -0.1287 -0.0163
    1SOL     OW 1333   1.552   2.303   0.809 -0.3138  0.0239 -0.2405
    1SOL    HW2 1334   1.479   2.340   0.759 -0.1583 -0.0008 -0.4832
    1SOL    HW3 1335   1.549   2.210   0.790 -0.8025 -0.1191  0.4940
    1SOL    MW4 1336   1.542   2.296   0.800 -0.3576  0.0019 -0.1756
    1SOL     OW 1337   1.334   2.416   0.686 -0.5487 -0.3551 -0.0041
    1SOL    HW2 1338   1.328   2.490   0.746 -0.9280 -0.5551  0.2060
    1SOL    HW3 1339   1.316   2.454   0.600 -0.3016 -0.1208  0.0480
    1SOL    MW4 1340   1.331   2.431   0.683 -0.5662 -0.3507  0.0305
    1SOL     OW 1341   1.314   2.672   0.810  0.1612  0.1186  0.0814
    1SOL    HW2 1342   1.315   2.709   0.898  0.4913 -0.3876  0.2960
    1SOL    HW3 1343   1.244   2.719   0.764 -1.2739 -0.8966  1.1733
    1SOL    MW4 1344   1.305   2.683   0.816  0.0153 -0.0820  0.2538
    1SOL     OW 1345   1.539   2.790   0.736 -0.3957  0.8582 -0.3047
    1SOL    HW2 1346   1.538   2.882   0.760 -0.1774  0.6395  0.5521
    1SOL    HW3 1347   1.459   2.753   0.773  0.1710  0.4206  0.4998
    1SOL    MW4 1348   1.528   2.797   0.744 -0.2921  0.7715 -0.0855
    1SOL     OW 1349   1.564   3.083   0.769 -0.0290  0.1202 -0.2410
    1SOL    HW2 1350   1.580   3.086   0.864  0.0200 -0.7895 -0.2104
    1SOL    HW3 1351   1.494   3.146   0.754 -0.2004  0.0943  0.4357
    1SOL    MW4 1352   1.557   3.092   0.780 -0.0452 -0.0031 -0.1476
    1SOL     OW 1353   1.316   3.241   0.764 -0.0122  0.5134  0.3011
    1SOL    HW2 1354   1.260   3.173   0.801  0.7714  0.6455  1.7767
    1SOL    HW3 1355   1.287   3.250   0.673  0.5508 -2.4808 -0.2062
    1SOL    MW4 1356   1.304   3.233   0.757  0.1655  0.1359  0.4289
    1SOL     OW 1357   1.338   3.520   0.842  0.0052 -0.4033  0.1971
    1SOL    HW2 1358   1.422   3.545   0.804  0.6511 -1.1646  1.1055
    1SOL    HW3 1359   1.332   3.426   0.828 -0.1550 -0.5452  1.1619
    1SOL    MW4 1360   1.348   3.511   0.835  0.0694 -0.5224  0.4443
    1SOL     OW 1361   1.569   3.625   0.732 -0.2109 -0.0263 -0.4547
    1SOL    HW2 1362   1.637   3.558   0.740  1.0745  1.2341 -0.5896
    1SOL    HW3 1363   1.564   3.644   0.638  0.8576  1.4773 -0.2332
    1SOL    MW4 1364   1.577   3.619   0.720  0.0997  0.3386 -0.4432
    1SOL     OW 1365   1.572   3.886   0.864  0.1143  0.3991  0.0309
    1SOL    HW2 1366   1.492   3.919   0.824 -0.7113 -0.3179  1.0513
    1SOL    HW3 1367   1.583   3.798   0.828 -0.4123 -0.0928  1.0491
    1SOL    MW4 1368   1.563   3.878   0.854 -0.0640  0.2394  0.2999
    1SOL     OW 1369   1.358   4.005   0.689  0.2748  0.0098 -0.5055
    1SOL    HW2 1370   1.275   3.960   0.671  0.0682 -0.0182  0.4599
    1SOL    HW3 1371   1.386   4.038   0.604  0.1268 -1.4200 -1.1216
    1SOL    MW4 1372   1.351   4.003   0.676  0.2279 -0.1826 -0.4594
    1SOL     OW 1373   1.378   4.255   0.806 -0.4984 -0.1934  0.0913
    1SOL    HW2 1374   1.460   4.286   0.768 -0.6424 -0.2556 -0.2729
    1SOL    HW3 1375   1.375   4.162   0.784  0.2278 -0.6152  1.7049
    1SOL    MW4 1376   1.389   4.246   0.798 -0.4215 -0.2575  0.2561
    1SOL     OW 1377   1.632   4.340   0.692 -0.2129  0.3232  0.2237
    1SOL    HW2 1378   1.706   4.318   0.748 -0.4086 -0.3224  0.2251
    1SOL    HW3 1379   1.600   4.424   0.726 -1.3675 -0.8530  2.1171
    1SOL    MW4 1380   1.638   4.348   0.704 -0.3910  0.0825  0.4737
    1SOL     OW 1381   2.046   4.649   0.833 -0.1453 -0.1230 -0.1785
    1SOL    HW2 1382   2.112   4.695   0.781 -0.0154 -0.6776 -0.4980
    1SOL    HW3 1383   2.036   4.564   0.790 -2.0127  0.4411 -0.9153
    1SOL    MW4 1384   2.054   4.644   0.820 -0.3746 -0.1216 -0.3178
    1SOL     OW 1385   1.682   0.101   0.663 -0.1615 -0.4224  0.1795
    1SOL    HW2 1386   1.741   0.115   0.737 -0.8786  0.4084  0.6004
    1SOL    HW3 1387   1.615   0.042   0.697 -0.0848 -0.6293 -0.0275
    1SOL    MW4 1388   1.681   0.095   0.678 -0.2460 -0.3400  0.2077
    1SOL     OW 1389   1.871   0.207   0.838 -0.2974 -0.1656 -0.4095
    1SOL    HW2 1390   1.937   0.138   0.836 -0.7519 -0.6107  0.0077
    1SOL    HW3 1391   1.833   0.203   0.925 -0.7111  0.2489 -0.5654
    1SOL    MW4 1392   1.875   0.197   0.849 -0.4120 -0.1697 -0.3750
    1SOL     OW 1393   1.967   0.498   0.700  0.0034  0.2945  0.1384
    1SOL    HW2 1394   2.042   0.461   0.746 -0.1147  0.1396  0.2049
    1SOL    HW3 1395   2.005   0.545   0.626  0.0390 -1.3923 -0.9428
    1SOL    MW4 1396   1.981   0.500   0.696 -0.0074  0.0515  0.0045
    1SOL     OW 1397   2.039   0.731   0.866  0.0851 -0.5147  0.4286
    1SOL    HW2 1398   2.103   0.781   0.816  1.8636 -2.5004  0.6428
    1SOL    HW3 1399   2.019   0.656   0.811 -1.7379 -0.1497  0.5671
    1SOL    MW4 1400   2.045   0.728   0.852  0.0792 -0.7285  0.4750
    1SOL     OW 1401   1.831   0.876   0.802  0.1342 -0.1192  0.0937
    1SOL    HW2 1402   1.822   0.951   0.860 -1.4620 -0.4647  0.3160
    1SOL    HW3 1403   1.914   0.836   0.827  0.1029  0.5134  1.2156
    1SOL    MW4 1404   1.841   0.880   0.813 -0.0805 -0.0813  0.2711
    1SOL     OW 1405   1.829   1.131   0.921 -0.6605 -0.4562  0.3976
    1SOL    HW2 1406   1.903   1.186   0.895 -0.3367 -1.2258 -0.3366
    1SOL    HW3 1407   1.753   1.172   0.880 -0.2732 -1.1489 -1.0453
    1SOL    MW4 1408   1.829   1.144   0.912 -0.5666 -0.6491  0.1104
    1SOL     OW 1409   2.030   1.275   0.802  0.0512 -0.3791 -0.0977
    1SOL    HW2 1410   2.109   1.228   0.828 -0.5497 -0.5260  1.5607
    1SOL    HW3 1411   2.002   1.234   0.720  1.4864 -0.5538 -0.4993
    1SOL    MW4 1412   2.037   1.264   0.795  0.1614 -0.4215  0.0682
    1SOL     OW 1413   2.012   1.548   0.832 -0.2337  0.0674 -0.3386
    1SOL    HW2 1414   2.083   1.600   0.793  0.6739 -0.3167  0.7528
    1SOL    HW3 1415   2.029   1.458   0.801 -1.1878  0.2337 -1.3712
    1SOL    MW4 1416   2.024   1.543   0.823 -0.2398  0.0385 -0.3309
    1SOL     OW 1417   1.772   1.674   0.702 -0.1501 -0.0299 -0.4396
    1SOL    HW2 1418   1.852   1.636   0.738 -0.7058 -0.4181  0.4101
    1SOL    HW3 1419   1.704   1.610   0.722 -0.4358 -0.3537 -2.4177
    1SOL    MW4 1420   1.774   1.661   0.710 -0.2611 -0.1239 -0.5885
    1SOL     OW 1421   1.764   1.912   0.847 -0.1098  0.3408 -0.0627
    1SOL    HW2 1422   1.758   1.831   0.796 -0.0301  0.6041 -0.4946
    1SOL    HW3 1423   1.702   1.971   0.804 -0.6083  0.3164  0.6115
    1SOL    MW4 1424   1.755   1.909   0.834 -0.1650  0.3724 -0.0308
    1SOL     OW 1425   1.958   2.047   0.720  0.0969  0.4525  0.0647
    1SOL    HW2 1426   1.958   2.136   0.753  1.2135 -0.0646  1.4995
    1SOL    HW3 1427   1.898   2.000   0.778 -0.8606  0.3545 -0.9780
    1SOL    MW4 1428   1.950   2.052   0.732  0.1180  0.3712  0.1164
    1SOL     OW 1429   2.009   2.291   0.823  0.4869  0.2013 -0.6373
    1SOL    HW2 1430   2.012   2.309   0.917 -0.7489  0.3238 -0.6231
    1SOL    HW3 1431   1.937   2.344   0.790  1.4764  0.8427 -1.8171
    1SOL    MW4 1432   2.000   2.300   0.831  0.4544  0.3021 -0.7911
    1SOL     OW 1433   1.795   2.449   0.739  0.2998 -0.7125 -0.1999
    1SOL    HW2 1434   1.709   2.409   0.756 -0.2775  0.8378  0.6036
    1SOL    HW3 1435   1.788   2.487   0.652  0.3034 -0.8936 -0.2808
    1SOL    MW4 1436   1.783   2.448   0.730  0.2241 -0.5319 -0.1045
    1SOL     OW 1437   1.771   2.691   0.870  0.0797 -0.3707  0.3583
    1SOL    HW2 1438   1.775   2.603   0.831 -0.1672  0.0572 -0.6515
    1SOL    HW3 1439   1.693   2.731   0.831  0.9226  0.7702 -0.1950
    1SOL    MW4 1440   1.761   2.685   0.860  0.1582 -0.1640  0.1520
    1SOL     OW 1441   2.012   2.824   0.769 -0.1111 -0.7400  0.2991
    1SOL    HW2 1442   2.090   2.780   0.803 -0.0500 -1.2201 -0.4546
    1SOL    HW3 1443   1.939   2.776   0.806 -0.0591  0.0856  1.4977
    1SOL    MW4 1444   2.013   2.812   0.778 -0.0963 -0.6943  0.3578
    1SOL     OW 1445   1.962   3.072   0.855 -0.5987 -0.3024 -0.0276
    1SOL    HW2 1446   1.896   3.104   0.794 -1.8603 -0.4609  1.2321
    1SOL    HW3 1447   1.983   2.984   0.824 -0.7637 -0.1426 -0.5960
    1SOL    MW4 1448   1.956   3.064   0.843 -0.7870 -0.3021  0.0636
    1SOL     OW 1449   1.785   3.183   0.676  0.0106  0.0060 -0.0606
    1SOL    HW2 1450   1.703   3.143   0.705 -0.2885  0.5170 -0.1783
    1SOL    HW3 1451   1.805   3.140   0.592 -0.9413  0.9312 -0.7780
    1SOL    MW4 1452   1.777   3.172   0.669 -0.1545  0.1955 -0.1708
    1SOL     OW 1453   1.775   3.442   0.780  0.5672 -0.1041 -0.0169
    1SOL    HW2 1454   1.794   3.348   0.772 -1.9043 -0.6640  0.3117
    1SOL    HW3 1455   1.762   3.455   0.874  0.0514  0.3838 -0.1535
    1SOL    MW4 1456   1.776   3.431   0.792  0.1730 -0.1135  0.0085
    1SOL     OW 1457   2.035   3.571   0.687  0.0859  0.0904  0.1235
    1SOL    HW2 1458   2.009   3.660   0.710 -1.1363 -0.7599  2.1368
    1SOL    HW3 1459   1.959   3.517   0.708  1.2430 -1.6023  0.1038
    1SOL    MW4 1460   2.022   3.576   0.693  0.0772 -0.2451  0.3866
    1SOL     OW 1461   1.989   3.843   0.799  0.0274 -0.0133  0.2205
    1SOL    HW2 1462   1.989   3.831   0.894  1.0096  1.5441  0.4409
    1SOL    HW3 1463   1.915   3.901   0.782  0.2803  0.2720  0.1036
    1SOL    MW4 1464   1.979   3.849   0.809  0.1904  0.2301  0.2342
    1SOL     OW 1465   1.783   4.022   0.727 -0.2665  0.2151  0.2983
    1SOL    HW2 1466   1.717   3.964   0.764 -0.3275  0.2144  0.1909
    1SOL    HW3 1467   1.783   4.001   0.633 -0.3496  0.4456  0.2455
    1SOL    MW4 1468   1.774   4.012   0.719 -0.2854  0.2456  0.2772
    1SOL     OW 1469   1.852   4.269   0.840 -0.0989 -0.1902 -0.1293
    1SOL    HW2 1470   1.832   4.261   0.933  0.3727  1.3952  0.1186
    1SOL    HW3 1471   1.816   4.189   0.801 -2.2573  0.1386  1.0776
    1SOL    MW4 1472   1.844   4.257   0.847 -0.3214  0.0620  0.0626
    1SOL     OW 1473   2.060   4.389   0.712 -0.0819  0.5238  0.0100
    1SOL    HW2 1474   1.986   4.337   0.745 -0.2337  0.8629  0.2160
    1SOL    HW3 1475   2.074   4.358   0.623  0.4367 -0.5245  0.4486
    1SOL    MW4 1476   2.052   4.378   0.705 -0.0334  0.4306  0.0951
    1SOL     OW 1477   2.508   0.075   0.665  0.2184  0.1522 -0.2881
    1SOL    HW2 1478   2.531   0.158   0.708 -1.5615  0.4669  0.1011
    1SOL    HW3 1479   2.556   0.009   0.713  1.0686  0.8836 -0.1176
    1SOL    MW4 1480   2.517   0.077   0.677  0.0958  0.2902 -0.2142
    1SOL     OW 1481   2.232   0.129   0.690  0.6098 -0.4183  0.2849
    1SOL    HW2 1482   2.324   0.103   0.688  0.8095  0.1869  1.2733
    1SOL    HW3 1483   2.200   0.110   0.602  1.8803  0.0789 -0.2983
    1SOL    MW4 1484   2.240   0.123   0.678  0.8035 -0.2729  0.3384
    1SOL     OW 1485   2.199   0.392   0.830  0.0743  0.3552 -0.2024
    1SOL    HW2 1486   2.281   0.417   0.787  0.1555 -0.3083 -0.4388
    1SOL    HW3 1487   2.190   0.299   0.811 -0.3548  0.2641  0.4558
    1SOL    MW4 1488   2.208   0.383   0.822  0.0284  0.2556 -0.1467
    1SOL     OW 1489   2.421   0.527   0.732  0.2394 -0.0662 -0.1115
    1SOL    HW2 1490   2.480   0.453   0.747  0.5147  0.2553  0.4559
    1SOL    HW3 1491   2.438   0.554   0.642 -1.0029 -1.6700 -0.8457
    1SOL    MW4 1492   2.431   0.521   0.722  0.1116 -0.2353 -0.1335
    1SOL     OW 1493   2.447   0.792   0.813 -0.0217 -0.3448  0.2382
    1SOL    HW2 1494   2.542   0.801   0.813 -0.0350 -0.1907 -0.3536
    1SOL    HW3 1495   2.431   0.702   0.784 -0.0608 -0.2925  0.0959
    1SOL    MW4 1496   2.457   0.781   0.809 -0.0284 -0.3175  0.1413
    1SOL     OW 1497   2.206   0.895   0.716 -0.0637  0.1301  0.3286
    1SOL    HW2 1498   2.296   0.866   0.730 -0.7660 -1.6766  1.2220
    1SOL    HW3 1499   2.208   0.942   0.632  1.4556 -1.0089 -0.2773
    1SOL    MW4 1500   2.218   0.898   0.707  0.0439 -0.2585  0.3665
    1SOL     OW 1501   2.253   1.125   0.872  0.1795  0.0077 -0.3679
    1SOL    HW2 1502   2.221   1.116   0.961  1.2205  0.6820  0.0806
    1SOL    HW3 1503   2.223   1.046   0.827 -0.0177 -0.5039  0.6727
    1SOL    MW4 1504   2.245   1.114   0.878  0.2909  0.0291 -0.1715
    1SOL     OW 1505   2.457   1.240   0.731  0.0808 -0.1911  0.1661
    1SOL    HW2 1506   2.393   1.200   0.790  0.1454 -0.3379  0.1375
    1SOL    HW3 1507   2.423   1.222   0.644 -0.4882  0.8164  0.1717
    1SOL    MW4 1508   2.444   1.232   0.728  0.0143 -0.0776  0.1630
    1SOL     OW 1509   2.393   1.519   0.806 -0.2230 -0.0260 -0.3712
    1SOL    HW2 1510   2.480   1.553   0.788  0.1601 -1.2692 -0.9471
    1SOL    HW3 1511   2.395   1.429   0.773 -1.1860 -0.6255  1.1615
    1SOL    MW4 1512   2.404   1.511   0.799 -0.2995 -0.2691 -0.2449
    1SOL     OW 1513   2.219   1.695   0.697  0.4744 -0.6445 -0.0609
    1SOL    HW2 1514   2.292   1.640   0.725  0.9306 -0.3625 -0.6826
    1SOL    HW3 1515   2.252   1.741   0.620  0.8999  2.1672  1.7203
    1SOL    MW4 1516   2.233   1.694   0.691  0.5906 -0.2363  0.0921
    1SOL     OW 1517   2.187   1.958   0.831  0.0207  0.3471 -0.2752
    1SOL    HW2 1518   2.203   1.873   0.790  0.4347 -0.1987  0.9806
    1SOL    HW3 1519   2.106   1.989   0.791 -0.2434 -0.7424 -0.6006
    1SOL    MW4 1520   2.178   1.951   0.820  0.0403  0.1314 -0.1524
    1SOL     OW 1521   2.445   2.068   0.751  0.7492 -0.0647 -0.3626
    1SOL    HW2 1522   2.364   2.028   0.781  1.0202 -0.9660 -0.8360
    1SOL    HW3 1523   2.430   2.087   0.659  0.7525  0.5930 -0.2303
    1SOL    MW4 1524   2.433   2.065   0.743  0.7856 -0.0970 -0.4076
    1SOL     OW 1525   2.478   2.302   0.905 -0.2947  0.0059  0.0109
    1SOL    HW2 1526   2.536   2.357   0.852 -1.6225  0.3353 -1.1044
    1SOL    HW3 1527   2.483   2.216   0.863  1.4928 -0.6630  1.5352
    1SOL    MW4 1528   2.487   2.298   0.892 -0.2341 -0.0389  0.0649
    1SOL     OW 1529   2.277   2.447   0.788 -0.4376 -0.1281 -0.2068
    1SOL    HW2 1530   2.331   2.396   0.849  1.0319 -0.6530 -1.8905
    1SOL    HW3 1531   2.198   2.395   0.778 -0.5725 -0.1846  1.0064
    1SOL    MW4 1532   2.274   2.433   0.795 -0.2613 -0.2048 -0.2689
    1SOL     OW 1533   2.235   2.707   0.889  0.2557  0.0265  0.1158
    1SOL    HW2 1534   2.229   2.687   0.982 -0.3149  0.2083  0.1160
    1SOL    HW3 1535   2.265   2.625   0.849  0.0569 -0.1843  0.3995
    1SOL    MW4 1536   2.238   2.694   0.896  0.1545  0.0226  0.1532
    1SOL     OW 1537   2.421   2.856   0.733  0.4903 -0.0876  0.0917
    1SOL    HW2 1538   2.507   2.829   0.764  0.5893 -0.2023 -0.2795
    1SOL    HW3 1539   2.360   2.813   0.793  0.6542 -0.9364 -0.3402
    1SOL    MW4 1540   2.424   2.847   0.745  0.5250 -0.2148 -0.0142
    1SOL     OW 1541   2.467   3.115   0.801  0.2870  0.1001 -0.5349
    1SOL    HW2 1542   2.454   3.112   0.895 -0.5112 -0.0848 -0.6495
    1SOL    HW3 1543   2.445   3.027   0.771  0.0629  0.2987 -0.9554
    1SOL    MW4 1544   2.463   3.103   0.809  0.1521  0.1020 -0.6055
    1SOL     OW 1545   2.203   3.190   0.732 -0.3636 -0.2159  0.0360
    1SOL    HW2 1546   2.144   3.131   0.780 -3.1070  1.9869 -0.5293
    1SOL    HW3 1547   2.291   3.159   0.755 -1.6787 -2.7139  2.0144
    1SOL    MW4 1548   2.207   3.178   0.742 -0.8991 -0.2546  0.2224
    1SOL     OW 1549   2.247   3.432   0.844  0.2330 -0.4725  0.4409
    1SOL    HW2 1550   2.241   3.352   0.792  1.0954  0.4500 -1.1198
    1SOL    HW3 1551   2.180   3.489   0.808  0.6624  0.0855  0.5137
    1SOL    MW4 1552   2.237   3.429   0.833  0.4034 -0.2775  0.2446
    1SOL     OW 1553   2.440   3.591   0.745  0.2248 -0.3649 -0.2287
    1SOL    HW2 1554   2.515   3.572   0.801 -1.1357 -0.5379  1.5709
    1SOL    HW3 1555   2.364   3.556   0.793 -1.0575  0.1491 -1.8247
    1SOL    MW4 1556   2.440   3.584   0.758 -0.1237 -0.3200 -0.2018
    1SOL     OW 1557   2.469   3.857   0.854 -0.0130 -0.1124 -0.1833
    1SOL    HW2 1558   2.392   3.912   0.842 -0.9411 -1.1447  0.9011
    1SOL    HW3 1559   2.449   3.777   0.806  0.0795 -0.6588  0.6756
    1SOL    MW4 1560   2.456   3.854   0.846 -0.1233 -0.3204  0.0731
    1SOL     OW 1561   2.220   3.994   0.793 -0.0621 -0.1464 -0.0482
    1SOL    HW2 1562   2.137   3.946   0.794  0.5262 -1.1690  1.9967
    1SOL    HW3 1563   2.243   4.000   0.700 -2.6084  0.4924 -0.6705
    1SOL    MW4 1564   2.212   3.988   0.781 -0.3204 -0.1967  0.1395
    1SOL     OW 1565   2.265   4.251   0.840 -0.3156 -0.4729 -0.1613
    1SOL    HW2 1566   2.242   4.158   0.842  0.1265 -0.5707  1.4380
    1SOL    HW3 1567   2.199   4.291   0.784 -0.7190 -1.6936 -0.5801
    1SOL    MW4 1568   2.254   4.244   0.833 -0.3104 -0.6466 -0.0055
    1SOL     OW 1569   2.567   4.282   0.818  0.0800 -0.5296 -0.3158
    1SOL    HW2 1570   2.591   4.252   0.906 -0.0650  1.0138  0.2697
    1SOL    HW3 1571   2.472   4.274   0.815 -0.0898  1.0684  0.3155
    1SOL    MW4 1572   2.558   4.277   0.829  0.0386 -0.1149 -0.1552
    1SOL     OW 1573   2.872   4.589   0.821 -0.3007 -0.0440  0.2508
    1SOL    HW2 1574   2.887   4.683   0.815 -0.2848 -0.0385  0.3679
    1SOL    HW3 1575   2.777   4.579   0.819 -0.2866 -0.1184 -1.1675
    1SOL    MW4 1576   2.862   4.600   0.820 -0.2968 -0.0529  0.0790
    1SOL     OW 1577   2.588   4.550   0.861  0.0608  0.1904  0.0515
    1SOL    HW2 1578   2.568   4.461   0.831 -2.7096  0.9054 -0.3835
    1SOL    HW3 1579   2.518   4.571   0.922  0.5046  2.1928 -0.0891
    1SOL    MW4 1580   2.576   4.541   0.865 -0.2460  0.5488 -0.0244
    1SOL     OW 1581   2.587   0.307   0.810 -0.3169  0.2204  0.3090
    1SOL    HW2 1582   2.625   0.303   0.897 -0.1020 -2.1061  0.1226
    1SOL    HW3 1583   2.658   0.342   0.755  0.6508 -1.4153  0.4819
    1SOL    MW4 1584   2.601   0.311   0.814 -0.1607 -0.3023  0.3071
    1SOL     OW 1585   2.831   0.319   0.652 -0.3076 -0.0572 -0.1502
    1SOL    HW2 1586   2.855   0.400   0.608 -1.4635  0.6392  0.4745
    1SOL    HW3 1587   2.829   0.253   0.583  0.0695  0.5730 -0.7605
    1SOL    MW4 1588   2.834   0.321   0.637 -0.4103  0.1178 -0.1482
    1SOL     OW 1589   2.955   0.758   0.844 -0.4846 -0.2482 -0.1800
    1SOL    HW2 1590   2.922   0.758   0.934  0.3478  0.1996  0.1324
    1SOL    HW3 1591   3.011   0.680   0.840 -0.1630 -0.0181 -0.1714
    1SOL    MW4 1592   2.958   0.748   0.856 -0.3326 -0.1588 -0.1376
    1SOL     OW 1593   2.697   0.886   0.763 -0.2783 -0.1303 -0.3008
    1SOL    HW2 1594   2.782   0.849   0.787 -0.8022 -1.4622 -0.4627
    1SOL    HW3 1595   2.695   0.880   0.667 -1.4520 -2.1322 -0.1666
    1SOL    MW4 1596   2.708   0.881   0.753 -0.5021 -0.5702 -0.3045
    1SOL     OW 1597   2.697   1.165   0.817 -0.1834 -0.1210  0.2342
    1SOL    HW2 1598   2.706   1.069   0.816 -0.4354 -0.1972 -3.6333
    1SOL    HW3 1599   2.605   1.180   0.795  0.0983  1.0190 -0.1897
    1SOL    MW4 1600   2.686   1.154   0.814 -0.1793  0.0194 -0.3319
    1SOL     OW 1601   2.922   1.294   0.695  0.6043  0.0338 -0.7319
    1SOL    HW2 1602   3.009   1.276   0.730  0.4283 -1.0573 -0.8385
    1SOL    HW3 1603   2.863   1.245   0.752  0.2296 -0.8557 -1.8649
    1SOL    MW4 1604   2.926   1.285   0.707  0.5317 -0.2276 -0.8954
    1SOL     OW 1605   2.880   1.552   0.785  0.3155 -0.2642  0.2480
    1SOL    HW2 1606   2.955   1.604   0.757  1.4238 -0.4831  2.6979
    1SOL    HW3 1607   2.896   1.465   0.746 -0.7405  0.7187 -2.5297
    1SOL    MW4 1608   2.892   1.547   0.776  0.3221 -0.1636  0.2047
    1SOL     OW 1609   2.629   1.678   0.743  0.3805 -0.4827  0.2502
    1SOL    HW2 1610   2.650   1.766   0.772  1.4621 -0.4713 -0.5218
    1SOL    HW3 1611   2.708   1.627   0.762  0.7782 -0.6706 -1.7501
    1SOL    MW4 1612   2.642   1.683   0.749  0.5758 -0.5060 -0.1155
    1SOL     OW 1613   2.685   1.935   0.842 -0.5595 -0.0054 -0.0771
    1SOL    HW2 1614   2.654   1.939   0.933  0.4105  0.6451  0.2287
    1SOL    HW3 1615   2.608   1.959   0.791 -1.6520 -2.2764  0.4446
    1SOL    MW4 1616   2.670   1.939   0.847 -0.5758 -0.2192  0.0321
    1SOL     OW 1617   2.828   2.122   0.680 -0.3949 -0.1689 -0.1882
    1SOL    HW2 1618   2.843   2.196   0.739  1.1032 -0.6691  0.0699
    1SOL    HW3 1619   2.789   2.054   0.735  0.7696 -0.5453  0.1795
    1SOL    MW4 1620   2.825   2.123   0.695 -0.0434 -0.2847 -0.1057
    1SOL     OW 1621   2.864   2.363   0.881  0.3164 -0.3526 -0.1529
    1SOL    HW2 1622   2.854   2.315   0.963  1.2580 -1.7943 -0.8578
    1SOL    HW3 1623   2.783   2.413   0.872  0.1634 -0.2596  1.5973
    1SOL    MW4 1624   2.852   2.364   0.891  0.4203 -0.5305 -0.0149
    1SOL     OW 1625   2.636   2.517   0.741  0.3807 -0.0073 -0.6129
    1SOL    HW2 1626   2.626   2.522   0.646  0.8835 -0.5081 -0.6944
    1SOL    HW3 1627   2.664   2.605   0.767 -0.7378  0.4129 -0.8058
    1SOL    MW4 1628   2.638   2.529   0.732  0.2995 -0.0179 -0.6491
    1SOL     OW 1629   2.678   2.778   0.809 -0.1751  0.2095  0.7525
    1SOL    HW2 1630   2.697   2.779   0.903 -1.0772  2.2133  0.9449
    1SOL    HW3 1631   2.760   2.807   0.768  0.2291 -0.6963  0.9028
    1SOL    MW4 1632   2.691   2.782   0.816 -0.2408  0.3543  0.7977
    1SOL     OW 1633   2.979   2.875   0.442  0.0252  0.0065 -0.0663
    1SOL    HW2 1634   2.926   2.952   0.420  0.0301 -0.2673 -1.0754
    1SOL    HW3 1635   3.069   2.903   0.428 -0.0719 -0.8805 -2.8157
    1SOL    MW4 1636   2.984   2.889   0.437  0.0131 -0.1469 -0.5622
    1SOL     OW 1637   2.900   3.128   0.839  0.0676  0.0072 -0.4284
    1SOL    HW2 1638   2.825   3.181   0.810  0.0914  0.1014 -0.3193
    1SOL    HW3 1639   2.894   3.048   0.788 -0.8956 -0.5563  0.5433
    1SOL    MW4 1640   2.889   3.125   0.828 -0.0563 -0.0548 -0.2858
    1SOL     OW 1641   2.684   3.272   0.715 -0.3663  0.5314 -0.0410
    1SOL    HW2 1642   2.677   3.343   0.778  1.0701  0.5040  0.1542
    1SOL    HW3 1643   2.617   3.209   0.743 -1.3775  1.6093  0.0139
    1SOL    MW4 1644   2.674   3.273   0.727 -0.3099  0.6702 -0.0080
    1SOL     OW 1645   2.660   3.522   0.876  0.0725  0.2283 -0.6669
    1SOL    HW2 1646   2.670   3.480   0.962 -0.4165  1.0955 -0.1788
    1SOL    HW3 1647   2.750   3.542   0.849  0.2634 -0.5080 -0.5935
    1SOL    MW4 1648   2.673   3.519   0.884  0.0329  0.2456 -0.5928
    1SOL     OW 1649   2.872   3.588   0.743 -0.4246 -0.0834 -0.1662
    1SOL    HW2 1650   2.894   3.678   0.769 -2.2744  0.3990 -0.1711
    1SOL    HW3 1651   2.867   3.592   0.648 -2.1461  0.2410 -0.0873
    1SOL    MW4 1652   2.874   3.601   0.734 -0.8960  0.0229 -0.1564
    1SOL     OW 1653   2.946   3.858   0.773  0.1800 -0.1821 -0.5548
    1SOL    HW2 1654   2.953   3.871   0.867 -0.1243 -0.9310 -0.4208
    1SOL    HW3 1655   2.869   3.909   0.747 -1.2489 -1.9803  0.0254
    1SOL    MW4 1656   2.937   3.866   0.782 -0.0486 -0.5183 -0.4605
    1SOL     OW 1657   2.698   3.980   0.717 -0.2954 -0.1776 -0.0531
    1SOL    HW2 1658   2.632   3.968   0.786 -0.8758 -0.5933 -0.6792
    1SOL    HW3 1659   2.664   3.931   0.642  0.4299  0.1145 -0.5794
    1SOL    MW4 1660   2.685   3.972   0.716 -0.2761 -0.1938 -0.2051
    1SOL     OW 1661   2.863   4.230   0.839 -0.0040 -0.3512 -0.5013
    1SOL    HW2 1662   2.819   4.236   0.923  0.3892 -0.7669 -0.2651
    1SOL    HW3 1663   2.954   4.255   0.858  0.2512 -1.1499 -0.6630
    1SOL    MW4 1664   2.869   4.234   0.852  0.0815 -0.5112 -0.4914
    1SOL     OW 1665   2.992   4.411   0.642  0.1295 -0.4325  0.8255
    1SOL    HW2 1666   3.075   4.400   0.689  0.7258 -0.3839 -0.1954
    1SOL    HW3 1667   2.942   4.471   0.696  0.8416 -0.3148  1.3631
    1SOL    MW4 1668   2.997   4.418   0.655  0.3021 -0.4110  0.7617
    1SOL     OW 1669   3.360   0.030   0.877 -0.1537  0.6423  0.0175
    1SOL    HW2 1670   3.348   0.020   0.972 -1.1381  0.4375 -0.1183
    1SOL    HW3 1671   3.298   0.099   0.853 -1.4899 -0.8109 -0.8022
    1SOL    MW4 1672   3.350   0.038   0.887 -0.4597  0.4236 -0.1085
    1SOL     OW 1673   3.186   0.244   0.814 -0.3335 -0.0944 -0.7117
    1SOL    HW2 1674   3.207   0.334   0.842  0.3521 -0.4448 -0.1023
    1SOL    HW3 1675   3.096   0.230   0.846 -0.2375  0.1771 -0.3115
    1SOL    MW4 1676   3.177   0.254   0.822 -0.2306 -0.1048 -0.5785
    1SOL     OW 1677   3.122   0.525   0.883  0.3237  0.3969  0.4373
    1SOL    HW2 1678   3.111   0.484   0.969 -0.6516  1.3470  0.7725
    1SOL    HW3 1679   3.214   0.550   0.880  0.3816  0.2989  1.1776
    1SOL    MW4 1680   3.133   0.523   0.894  0.2027  0.5093  0.5791
    1SOL     OW 1681   3.381   0.525   0.780 -0.5331  0.6134 -0.2108
    1SOL    HW2 1682   3.446   0.466   0.820  0.8152  1.2717 -1.3673
    1SOL    HW3 1683   3.389   0.509   0.686 -1.8942  0.8862 -0.3794
    1SOL    MW4 1684   3.391   0.515   0.773 -0.5348  0.7363 -0.3856
    1SOL     OW 1685   3.368   0.798   0.825  0.1404  0.0085  0.7237
    1SOL    HW2 1686   3.297   0.826   0.767  0.0649 -0.5735  0.5356
    1SOL    HW3 1687   3.390   0.710   0.796  0.0420 -0.3269  1.6383
    1SOL    MW4 1688   3.362   0.790   0.814  0.1178 -0.1125  0.8195
    1SOL     OW 1689   3.149   0.909   0.702  0.2170 -0.4783  0.4638
    1SOL    HW2 1690   3.150   1.000   0.734  0.3782 -0.2274 -0.2445
    1SOL    HW3 1691   3.066   0.873   0.734 -0.8090  0.5497 -0.9821
    1SOL    MW4 1692   3.138   0.917   0.711  0.1030 -0.3096  0.1796
    1SOL     OW 1693   3.162   1.186   0.800  0.0098 -0.1512 -0.1833
    1SOL    HW2 1694   3.179   1.164   0.892  1.3924 -2.5527 -0.9749
    1SOL    HW3 1695   3.240   1.234   0.772 -1.0577  1.9232  0.2702
    1SOL    MW4 1696   3.175   1.190   0.809  0.0513 -0.1943 -0.2278
    1SOL     OW 1697   3.410   1.302   0.728  0.0424  0.1591 -0.1422
    1SOL    HW2 1698   3.494   1.264   0.750 -0.1994  0.2738  1.0352
    1SOL    HW3 1699   3.414   1.391   0.764 -1.2494 -0.4370  1.5732
    1SOL    MW4 1700   3.422   1.309   0.736 -0.1600  0.0956  0.2395
    1SOL     OW 1701   3.361   1.564   0.817  0.1355  0.3739  0.3004
    1SOL    HW2 1702   3.349   1.557   0.912 -1.3139  0.4307  0.1295
    1SOL    HW3 1703   3.440   1.618   0.807  0.2605  0.4229  1.4714
    1SOL    MW4 1704   3.370   1.570   0.828 -0.0393  0.3878  0.4323
    1SOL     OW 1705   3.139   1.640   0.678 -0.1049 -0.5637 -0.0448
    1SOL    HW2 1706   3.211   1.602   0.728  1.1133  0.2469 -1.1266
    1SOL    HW3 1707   3.170   1.639   0.587 -1.1099  0.5658 -0.4151
    1SOL    MW4 1708   3.153   1.635   0.672 -0.0765 -0.3077 -0.2364
    1SOL     OW 1709   3.206   1.897   0.811  0.1115  0.0763 -0.1194
    1SOL    HW2 1710   3.175   1.926   0.897  0.2736  1.0718 -0.3907
    1SOL    HW3 1711   3.184   1.804   0.808  2.2332 -0.5276  1.9419
    1SOL    MW4 1712   3.199   1.889   0.822  0.4129  0.1278  0.1167
    1SOL     OW 1713   3.450   2.011   0.670  0.2545 -0.0226  0.3449
    1SOL    HW2 1714   3.448   2.095   0.715  1.9658  0.4563 -0.4127
    1SOL    HW3 1715   3.377   1.961   0.707  0.5144  1.0203  2.2844
    1SOL    MW4 1716   3.440   2.015   0.681  0.5147  0.1781  0.5009
    1SOL     OW 1717   3.413   2.250   0.807 -0.0278  0.4060 -0.3572
    1SOL    HW2 1718   3.390   2.256   0.900  0.9157 -1.3508  0.0182
    1SOL    HW3 1719   3.489   2.307   0.797  1.0473 -0.8519  0.3913
    1SOL    MW4 1720   3.420   2.258   0.818  0.2384  0.0083 -0.2089
    1SOL     OW 1721   3.040   2.518   0.701  0.2338  0.1155  0.0010
    1SOL    HW2 1722   3.097   2.464   0.647  0.5467  0.8055 -0.3681
    1SOL    HW3 1723   2.999   2.457   0.762  1.1202 -0.4233  0.0552
    1SOL    MW4 1724   3.042   2.503   0.702  0.3920  0.1354 -0.0405
    1SOL     OW 1725   3.126   2.748   0.815  0.1181  0.4349 -0.0141
    1SOL    HW2 1726   3.109   2.666   0.770 -0.5790 -0.1221  1.2346
    1SOL    HW3 1727   3.206   2.781   0.776  1.1001 -1.4740  0.3368
    1SOL    MW4 1728   3.134   2.742   0.804  0.1557  0.1097  0.1969
    1SOL     OW 1729   3.370   2.832   0.731 -0.0656  0.1271 -0.7260
    1SOL    HW2 1730   3.390   2.842   0.638  2.0257  0.3821 -0.2818
    1SOL    HW3 1731   3.437   2.771   0.763 -0.3384  0.5830  0.7504
    1SOL    MW4 1732   3.381   2.825   0.723  0.1745  0.2208 -0.4725
    1SOL     OW 1733   3.347   3.091   0.859 -0.3201 -0.0842 -0.1910
    1SOL    HW2 1734   3.381   3.085   0.948  0.5489  1.4760 -0.4007
    1SOL    HW3 1735   3.339   3.000   0.830  0.1222 -0.5807  1.1911
    1SOL    MW4 1736   3.350   3.078   0.867 -0.1471  0.0558 -0.0362
    1SOL     OW 1737   3.145   3.248   0.770 -0.2001  0.2025  0.1589
    1SOL    HW2 1738   3.223   3.195   0.785 -0.6623 -0.0768  1.5789
    1SOL    HW3 1739   3.073   3.195   0.804 -1.0251  0.4613 -1.1359
    1SOL    MW4 1740   3.146   3.234   0.776 -0.3700  0.1998  0.1754
    1SOL     OW 1741   3.135   3.517   0.820 -0.0798  0.0922 -0.2441
    1SOL    HW2 1742   3.138   3.423   0.800 -0.8253  0.0620 -0.2512
    1SOL    HW3 1743   3.052   3.546   0.782  0.1925  0.7745 -0.3192
    1SOL    MW4 1744   3.124   3.508   0.812 -0.1423  0.1779 -0.2549
    1SOL     OW 1745   3.373   3.614   0.750  0.5393 -0.0972  0.2675
    1SOL    HW2 1746   3.377   3.704   0.785 -0.3197  0.1821 -0.3420
    1SOL    HW3 1747   3.287   3.582   0.778  0.0469 -0.0435 -1.1622
    1SOL    MW4 1748   3.362   3.622   0.759  0.3612 -0.0534 -0.0015
    1SOL     OW 1749   3.366   3.872   0.838  0.2342  0.1460 -0.1061
    1SOL    HW2 1750   3.359   3.872   0.933 -0.6884 -0.5022 -0.1737
    1SOL    HW3 1751   3.454   3.907   0.820  0.2464  0.6619  0.9648
    1SOL    MW4 1752   3.377   3.877   0.848  0.1144  0.1285  0.0263
    1SOL     OW 1753   3.168   4.057   0.738 -0.2960 -0.0783  0.1021
    1SOL    HW2 1754   3.235   3.992   0.761 -0.5462 -1.0069 -1.7356
    1SOL    HW3 1755   3.085   4.013   0.755 -0.4695  0.5972  1.0688
    1SOL    MW4 1756   3.166   4.043   0.743 -0.3517 -0.1116 -0.0128
    1SOL     OW 1757   3.144   4.296   0.862  0.0076  0.1586  0.2044
    1SOL    HW2 1758   3.221   4.345   0.835  1.0531 -0.6064  1.7147
    1SOL    HW3 1759   3.158   4.208   0.828 -0.7027  0.2813 -0.4122
    1SOL    MW4 1760   3.156   4.291   0.854  0.0517  0.0739  0.3223
    1SOL     OW 1761   3.366   4.437   0.760  0.3384 -0.1414  0.0694
    1SOL    HW2 1762   3.358   4.524   0.800  0.2963  0.4137 -1.1241
    1SOL    HW3 1763   3.391   4.455   0.669 -0.7384 -1.3374 -0.4746
    1SOL    MW4 1764   3.368   4.451   0.753  0.1907 -0.2260 -0.1599
    1SOL     OW 1765   3.811   4.588   0.858 -0.6259  0.0457  0.3582
    1SOL    HW2 1766   3.896   4.622   0.827 -0.8749 -0.1900 -0.6237
    1SOL    HW3 1767   3.747   4.646   0.817 -1.0411 -1.3699 -1.0705
    1SOL    MW4 1768   3.814   4.600   0.848 -0.7133 -0.1717  0.0402
    1SOL     OW 1769   3.619   0.093   0.784  0.3744 -0.3529 -0.4894
    1SOL    HW2 1770   3.535   0.062   0.818  0.6452  0.4409  0.9185
    1SOL    HW3 1771   3.597   0.136   0.701 -0.5528 -0.5230 -0.3330
    1SOL    MW4 1772   3.605   0.094   0.777  0.2875 -0.2706 -0.2830
    1SOL     OW 1773   3.571   0.350   0.875  0.0800 -0.4800 -0.0837
    1SOL    HW2 1774   3.569   0.364   0.970  0.2981  0.1646 -0.1708
    1SOL    HW3 1775   3.601   0.260   0.864 -1.0779 -0.9516  0.4935
    1SOL    MW4 1776   3.574   0.340   0.886 -0.0441 -0.4572 -0.0190
    1SOL     OW 1777   3.786   0.463   0.727  0.0288 -0.2147  0.0194
    1SOL    HW2 1778   3.785   0.555   0.752  0.9387 -0.3780  0.6879
    1SOL    HW3 1779   3.708   0.426   0.769 -0.8103  0.4234 -0.9599
    1SOL    MW4 1780   3.775   0.470   0.736  0.0381 -0.1521 -0.0216
    1SOL     OW 1781   3.820   0.730   0.819 -0.2557 -0.5402 -0.1375
    1SOL    HW2 1782   3.808   0.739   0.913 -1.3729 -0.3489 -0.2944
    1SOL    HW3 1783   3.906   0.768   0.802 -0.0343 -0.6090  0.8061
    1SOL    MW4 1784   3.830   0.736   0.829 -0.3738 -0.5240 -0.0337
    1SOL     OW 1785   3.605   0.889   0.709 -0.0208  0.1862  0.1599
    1SOL    HW2 1786   3.679   0.837   0.741 -0.4377 -0.0997  0.6610
    1SOL    HW3 1787   3.531   0.861   0.762 -0.3452  0.9818  0.1363
    1SOL    MW4 1788   3.605   0.879   0.720 -0.1187  0.2534  0.2230
    1SOL     OW 1789   3.615   1.143   0.854  0.2169 -0.1752 -0.6024
    1SOL    HW2 1790   3.611   1.125   0.948 -1.2968  1.3478 -0.3463
    1SOL    HW3 1791   3.604   1.058   0.813  1.2320 -0.9029  0.6051
    1SOL    MW4 1792   3.613   1.130   0.861  0.1512 -0.0702 -0.4093
    1SOL     OW 1793   3.849   1.269   0.762 -0.0544 -0.1138 -0.0948
    1SOL    HW2 1794   3.768   1.227   0.791  0.1284  0.2721  0.9617
    1SOL    HW3 1795   3.834   1.286   0.669 -0.4620 -1.7464 -0.3474
    1SOL    MW4 1796   3.836   1.265   0.753 -0.0842 -0.2784  0.0113
    1SOL     OW 1797   3.831   1.529   0.850 -0.1739 -0.0433  0.0363
    1SOL    HW2 1798   3.910   1.575   0.820  0.8346 -2.2233 -0.7010
    1SOL    HW3 1799   3.842   1.439   0.819 -1.9905 -0.8744  1.7235
    1SOL    MW4 1800   3.843   1.524   0.842 -0.2804 -0.4406  0.1616
    1SOL     OW 1801   3.605   1.676   0.765  0.5525 -0.0908 -0.2976
    1SOL    HW2 1802   3.618   1.760   0.809  0.2249 -0.4503  0.5100
    1SOL    HW3 1803   3.687   1.628   0.781  0.8517  0.1819 -1.0061
    1SOL    MW4 1804   3.618   1.681   0.773  0.5488 -0.1022 -0.2845
    1SOL     OW 1805   3.673   1.957   0.812 -0.4494 -0.1401  0.7747
    1SOL    HW2 1806   3.749   2.006   0.781  0.1989 -1.5028  0.1985
    1SOL    HW3 1807   3.602   1.981   0.752  0.1919 -0.9094 -0.2998
    1SOL    MW4 1808   3.673   1.967   0.800 -0.2792 -0.4213  0.5570
    1SOL     OW 1809   3.892   2.096   0.709 -0.2183  0.0437 -0.2365
    1SOL    HW2 1810   3.967   2.068   0.761  1.0475 -1.7382 -2.8772
    1SOL    HW3 1811   3.930   2.146   0.637 -1.8260  1.5895 -0.0355
    1SOL    MW4 1812   3.907   2.099   0.706 -0.2635  0.0124 -0.5584
    1SOL     OW 1813   3.858   2.364   0.826  0.3003  0.1077  0.1712
    1SOL    HW2 1814   3.841   2.346   0.918  0.1140 -1.1805 -0.1039
    1SOL    HW3 1815   3.866   2.277   0.786  1.1685  0.6596 -0.8738
    1SOL    MW4 1816   3.857   2.350   0.833  0.3901  0.0107 -0.0030
    1SOL     OW 1817   3.615   2.440   0.766 -0.6051 -0.2330  0.0285
    1SOL    HW2 1818   3.607   2.519   0.819  0.5464 -0.9054  1.2339
    1SOL    HW3 1819   3.706   2.412   0.778 -0.4458 -0.6637 -1.9259
    1SOL    MW4 1820   3.626   2.447   0.775 -0.4323 -0.3784 -0.0703
    1SOL     OW 1821   3.585   2.706   0.826 -0.6148 -0.3519  0.1848
    1SOL    HW2 1822   3.599   2.713   0.921 -0.4729 -1.2276  0.2324
    1SOL    HW3 1823   3.665   2.741   0.787 -0.2402 -0.9517  0.4052
    1SOL    MW4 1824   3.598   2.711   0.834 -0.5467 -0.5467  0.2202
    1SOL     OW 1825   3.834   2.810   0.739 -0.0548  0.1065  0.3089
    1SOL    HW2 1826   3.846   2.781   0.648  0.0943 -0.3203  0.4614
    1SOL    HW3 1827   3.821   2.904   0.733 -1.3236 -0.0922 -0.2655
    1SOL    MW4 1828   3.834   2.818   0.726 -0.2024  0.0238  0.2533
    1SOL     OW 1829   3.832   3.084   0.792 -0.0339 -0.3754 -0.1879
    1SOL    HW2 1830   3.904   3.146   0.782 -0.7166  0.6140  0.8585
    1SOL    HW3 1831   3.755   3.131   0.758 -0.3970 -0.9906 -0.2341
    1SOL    MW4 1832   3.831   3.098   0.786 -0.1719 -0.3259 -0.0560
    1SOL     OW 1833   3.603   3.227   0.712 -0.2400 -0.0975 -0.2012
    1SOL    HW2 1834   3.526   3.193   0.758 -0.9277  0.9446 -0.5382
    1SOL    HW3 1835   3.575   3.232   0.621  0.4252 -0.2425 -0.4125
    1SOL    MW4 1836   3.589   3.223   0.706 -0.2429  0.0207 -0.2735
    1SOL     OW 1837   3.617   3.488   0.834 -0.1275  0.2762 -0.2016
    1SOL    HW2 1838   3.623   3.397   0.804 -0.8194 -0.3455  1.5117
    1SOL    HW3 1839   3.536   3.521   0.796 -0.0085  0.1019 -0.6100
    1SOL    MW4 1840   3.607   3.480   0.825 -0.2031  0.1712 -0.0295
    1SOL     OW 1841   3.816   3.629   0.694  0.1121  0.0963 -0.4193
    1SOL    HW2 1842   3.896   3.578   0.709  0.3911  0.2497 -1.3771
    1SOL    HW3 1843   3.749   3.582   0.743  0.3875 -1.1423 -1.2025
    1SOL    MW4 1844   3.818   3.616   0.702  0.1850 -0.0470 -0.6490
    1SOL     OW 1845   3.868   3.872   0.847  0.5358  0.0153  0.6076
    1SOL    HW2 1846   3.790   3.915   0.811  0.0283 -0.9144  0.5881
    1SOL    HW3 1847   3.860   3.781   0.819  1.8218  0.0012  0.2937
    1SOL    MW4 1848   3.856   3.866   0.839  0.6385 -0.1094  0.5636
    1SOL     OW 1849   3.613   3.979   0.777  0.0420  0.0284  0.0438
    1SOL    HW2 1850   3.600   4.069   0.809  0.6325  0.2479 -0.3312
    1SOL    HW3 1851   3.601   3.986   0.682 -0.6405 -0.4257  0.0948
    1SOL    MW4 1852   3.610   3.992   0.769  0.0298 -0.0029  0.0011
    1SOL     OW 1853   3.563   4.243   0.853  0.3947 -0.5299  0.1049
    1SOL    HW2 1854   3.641   4.274   0.807  0.4962 -1.9074 -0.6869
    1SOL    HW3 1855   3.491   4.293   0.815  0.8322  0.4045  0.4996
    1SOL    MW4 1856   3.564   4.253   0.842  0.4656 -0.5879  0.0525
    1SOL     OW 1857   3.810   4.330   0.730 -0.2432  0.5072  0.1923
    1SOL    HW2 1858   3.879   4.281   0.775 -0.4983  0.0559  0.0978
    1SOL    HW3 1859   3.808   4.415   0.774 -0.5043  0.0608  1.0550
    1SOL    MW4 1860   3.819   4.334   0.742 -0.3114  0.3886  0.2937
    1SOL     OW 1861   4.289   4.656   0.839 -0.7410  0.0528 -0.2686
    1SOL    HW2 1862   4.279   4.648   0.934 -0.4327 -0.7276 -0.2995
    1SOL    HW3 1863   4.204   4.687   0.809 -0.5658  1.1774  0.3570
    1SOL    MW4 1864   4.276   4.659   0.847 -0.6776  0.0982 -0.1902
    1SOL     OW 1865   4.025   0.050   0.734 -0.1647  0.4478  0.1088
    1SOL    HW2 1866   4.012   0.139   0.767 -0.8939  0.9927 -1.5783
    1SOL    HW3 1867   4.022   0.060   0.639  1.3360 -1.1468 -0.1225
    1SOL    MW4 1868   4.023   0.063   0.726 -0.0629  0.3093 -0.1444
    1SOL     OW 1869   4.018   0.352   0.840 -0.1481  0.2796  0.3233
    1SOL    HW2 1870   4.088   0.391   0.788  0.1732 -1.4271 -0.5869
    1SOL    HW3 1871   3.938   0.392   0.806 -0.0320 -1.4858 -2.2324
    1SOL    MW4 1872   4.016   0.362   0.828 -0.0906 -0.1785 -0.1340
    1SOL     OW 1873   4.266   0.469   0.754 -0.0463  0.4776  0.2173
    1SOL    HW2 1874   4.336   0.410   0.781  0.1344  1.0321  0.9928
    1SOL    HW3 1875   4.268   0.467   0.659 -0.1997 -0.9424  0.2364
    1SOL    MW4 1876   4.275   0.461   0.745 -0.0429  0.3634  0.3221
    1SOL     OW 1877   4.293   0.735   0.868  0.0863  0.1696  0.4068
    1SOL    HW2 1878   4.214   0.752   0.815  1.5048  0.8928 -1.5563
    1SOL    HW3 1879   4.322   0.649   0.839  0.0510 -0.0761  1.1008
    1SOL    MW4 1880   4.286   0.726   0.857  0.2689  0.2326  0.2393
    1SOL     OW 1881   4.063   0.824   0.743  0.5455 -0.4174 -0.1375
    1SOL    HW2 1882   4.068   0.916   0.765  0.2757 -0.5376  0.4374
    1SOL    HW3 1883   4.047   0.822   0.648 -0.9096  0.1562  0.0800
    1SOL    MW4 1884   4.062   0.836   0.733  0.3171 -0.3576 -0.0328
    1SOL     OW 1885   4.055   1.074   0.838  0.0656 -0.2686 -0.2525
    1SOL    HW2 1886   4.050   1.071   0.933  0.0521  1.5188 -0.1894
    1SOL    HW3 1887   3.978   1.123   0.811  0.7602  0.3704 -1.1014
    1SOL    MW4 1888   4.044   1.080   0.847  0.1550  0.0516 -0.3562
    1SOL     OW 1889   4.263   1.251   0.756  0.0635  0.2273  0.0014
    1SOL    HW2 1890   4.188   1.196   0.777 -0.4904  1.2092  0.5879
    1SOL    HW3 1891   4.334   1.214   0.809 -0.3897  0.2887  0.6557
    1SOL    MW4 1892   4.263   1.239   0.766 -0.0696  0.3649  0.1651
    1SOL     OW 1893   4.237   1.526   0.837 -0.2084 -0.6731  0.1653
    1SOL    HW2 1894   4.228   1.515   0.932 -1.6060 -0.6348  0.0418
    1SOL    HW3 1895   4.241   1.437   0.803  2.4957 -0.7198  0.4251
    1SOL    MW4 1896   4.237   1.513   0.845 -0.0358 -0.6744  0.1833
    1SOL     OW 1897   4.031   1.699   0.768  0.1628 -0.3402 -0.2263
    1SOL    HW2 1898   4.108   1.644   0.778  0.9615  0.7119 -0.5404
    1SOL    HW3 1899   4.030   1.723   0.675 -0.9294 -0.9017 -0.3688
    1SOL    MW4 1900   4.041   1.695   0.757  0.1240 -0.2755 -0.2865
    1SOL     OW 1901   4.089   1.957   0.857 -0.3753 -0.2039  0.0908
    1SOL    HW2 1902   4.163   1.988   0.804 -1.7033  0.5071 -1.3762
    1SOL    HW3 1903   4.071   1.869   0.823 -1.5941  0.4732 -1.0639
    1SOL    MW4 1904   4.096   1.949   0.845 -0.7119 -0.0207 -0.2551
    1SOL     OW 1905   4.293   2.049   0.719 -0.1995 -0.0316 -0.2048
    1SOL    HW2 1906   4.361   1.999   0.763  0.4908  0.3797 -0.7947
    1SOL    HW3 1907   4.286   2.009   0.632  0.0020  0.5723 -0.5030
    1SOL    MW4 1908   4.301   2.037   0.713 -0.0820  0.1020 -0.3220
    1SOL     OW 1909   4.297   2.282   0.897 -0.0984 -0.3793  0.2768
    1SOL    HW2 1910   4.232   2.345   0.868 -1.1180 -1.2541  0.6458
    1SOL    HW3 1911   4.283   2.205   0.841  0.7313 -0.5143  0.2381
    1SOL    MW4 1912   4.287   2.280   0.886 -0.1240 -0.5124  0.3204
    1SOL     OW 1913   4.115   2.474   0.794 -0.0065 -0.0364 -0.5783
    1SOL    HW2 1914   4.102   2.556   0.841 -0.2905 -0.4815  0.1199
    1SOL    HW3 1915   4.030   2.430   0.797  0.0616 -0.2249 -1.2152
    1SOL    MW4 1916   4.102   2.479   0.801 -0.0348 -0.1199 -0.5702
    1SOL     OW 1917   4.050   2.727   0.908  0.5393  0.4040  0.1358
    1SOL    HW2 1918   4.116   2.779   0.863  0.5820  2.0495  2.0410
    1SOL    HW3 1919   3.967   2.754   0.869  0.7182  0.5848 -0.1217
    1SOL    MW4 1920   4.048   2.737   0.897  0.5684  0.6449  0.3532
    1SOL     OW 1921   4.275   2.853   0.772 -0.1950  0.2280  0.1874
    1SOL    HW2 1922   4.336   2.787   0.803 -0.8024 -0.8148 -0.7962
    1SOL    HW3 1923   4.303   2.873   0.683 -1.4076 -0.4271 -0.3568
    1SOL    MW4 1924   4.287   2.847   0.765 -0.4349  0.0038 -0.0142
    1SOL     OW 1925   4.314   3.107   0.865  0.4950  0.1885  0.0543
    1SOL    HW2 1926   4.314   3.021   0.822 -0.1273  0.2120  0.0130
    1SOL    HW3 1927   4.388   3.153   0.825  1.3694 -0.6421  0.7059
    1SOL    MW4 1928   4.324   3.102   0.854  0.5283  0.0820  0.1348
    1SOL     OW 1929   4.067   3.243   0.756 -0.0366 -0.0118 -0.2387
    1SOL    HW2 1930   4.077   3.334   0.784 -0.6312 -0.2812  0.8634
    1SOL    HW3 1931   4.132   3.195   0.807  1.4456  0.0214 -2.0430
    1SOL    MW4 1932   4.077   3.249   0.767  0.0801 -0.0432 -0.3313
    1SOL     OW 1933   4.060   3.515   0.828 -0.2069 -0.1680 -0.2742
    1SOL    HW2 1934   4.046   3.503   0.922  0.4139  2.7846  0.2649
    1SOL    HW3 1935   4.152   3.543   0.821 -0.1607 -0.6755 -1.7835
    1SOL    MW4 1936   4.071   3.517   0.839 -0.1187  0.1547 -0.4022
    1SOL     OW 1937   4.318   3.613   0.779 -0.0459  0.2626 -0.0302
    1SOL    HW2 1938   4.315   3.696   0.826 -1.1081  0.2610 -0.0675
    1SOL    HW3 1939   4.337   3.637   0.688  0.0632  0.4350  0.0383
    1SOL    MW4 1940   4.320   3.627   0.773 -0.1717  0.2851 -0.0261
    1SOL     OW 1941   4.314   3.869   0.869  0.0054  0.2397  0.4992
    1SOL    HW2 1942   4.305   3.881   0.963  0.6517 -1.5582  0.8085
    1SOL    HW3 1943   4.229   3.894   0.833 -0.5499  0.0132  1.6400
    1SOL    MW4 1944   4.302   3.874   0.876  0.0176 -0.0277  0.6905
    1SOL     OW 1945   4.106   3.970   0.720  0.5342 -0.1017 -0.0686
    1SOL    HW2 1946   4.020   3.929   0.728  0.0610  1.0389  0.8861
    1SOL    HW3 1947   4.118   3.981   0.626  0.0348 -1.0986 -0.2578
    1SOL    MW4 1948   4.096   3.966   0.709  0.4058 -0.0830  0.0324
    1SOL     OW 1949   4.039   4.227   0.864 -0.0581 -0.3082 -0.2019
    1SOL    HW2 1950   4.115   4.281   0.841 -0.2682  0.2298  0.3457
    1SOL    HW3 1951   4.060   4.141   0.830  0.0511  0.2448 -1.5442
    1SOL    MW4 1952   4.052   4.223   0.857 -0.0710 -0.1640 -0.3067
    1SOL     OW 1953   4.264   4.368   0.776 -0.3019  0.3556 -0.4502
    1SOL    HW2 1954   4.276   4.460   0.799 -0.5668  0.6746 -1.5772
    1SOL    HW3 1955   4.342   4.325   0.810 -0.6540  0.8192  0.9918
    1SOL    MW4 1956   4.276   4.374   0.784 -0.3834  0.4587 -0.4086
    1SOL     OW 1957   0.254   4.635   1.136  0.3412  0.0455 -0.2555
    1SOL    HW2 1958   0.325   4.682   1.180  0.7522  0.6286 -1.5028
    1SOL    HW3 1959   0.284   4.625   1.045 -0.5130 -1.0671 -0.4337
    1SOL    MW4 1960   0.268   4.640   1.130  0.2828 -0.0243 -0.4433
    1SOL     OW 1961   0.011   0.073   1.272 -0.2348  0.3617  0.1015
    1SOL    HW2 1962  -0.061   0.028   1.230 -0.3483 -0.8755  1.5989
    1SOL    HW3 1963   0.090   0.036   1.232 -0.3392 -0.8603  1.0236
    1SOL    MW4 1964   0.012   0.062   1.261 -0.2632  0.0372  0.4208
    1SOL     OW 1965   4.466   0.303   1.112  0.7227  0.0925  0.0757
    1SOL    HW2 1966   4.387   0.349   1.140  0.4667  0.0817 -0.6416
    1SOL    HW3 1967   4.482   0.239   1.182  0.1623  0.1705  0.2776
    1SOL    MW4 1968   4.458   0.301   1.125  0.6156  0.1013  0.0077
    1SOL     OW 1969   0.198   0.464   1.194 -0.0830 -0.0164  0.1197
    1SOL    HW2 1970   0.208   0.556   1.168 -0.6136  0.0237  0.0442
    1SOL    HW3 1971   0.113   0.438   1.158  0.2986 -0.6880 -0.3013
    1SOL    MW4 1972   0.188   0.473   1.186 -0.1027 -0.0997  0.0542
    1SOL     OW 1973   0.256   0.716   1.116  0.4873  0.3586  0.3149
    1SOL    HW2 1974   0.325   0.773   1.150 -0.3482  2.7425 -1.9014
    1SOL    HW3 1975   0.176   0.749   1.156  0.1937 -0.2830  0.2647
    1SOL    MW4 1976   0.254   0.727   1.126  0.3383  0.5884  0.0160
    1SOL     OW 1977   0.013   0.827   1.226  0.1888  0.1796 -0.0178
    1SOL    HW2 1978  -0.008   0.837   1.319 -1.2771  0.4951 -0.3571
    1SOL    HW3 1979  -0.071   0.803   1.185  0.8269 -0.0205 -1.2401
    1SOL    MW4 1980  -0.001   0.825   1.233  0.0796  0.1948 -0.2238
    1SOL     OW 1981   0.049   1.099   1.180 -0.2525  0.0095 -0.4555
    1SOL    HW2 1982  -0.039   1.133   1.198  0.4946  1.4085  0.5795
    1SOL    HW3 1983   0.040   1.004   1.192 -0.7293  0.4677  3.5553
    1SOL    MW4 1984   0.036   1.091   1.184 -0.2168  0.2545  0.2102
    1SOL     OW 1985   0.234   1.277   1.237 -0.4921  0.1577 -0.5014
    1SOL    HW2 1986   0.309   1.229   1.202 -0.9302 -0.3194 -0.8036
    1SOL    HW3 1987   0.161   1.215   1.231 -1.0619  0.8455 -0.8780
    1SOL    MW4 1988   0.234   1.263   1.231 -0.6251  0.1855 -0.5909
    1SOL     OW 1989   0.220   1.538   1.137 -0.2262  0.2374 -0.2025
    1SOL    HW2 1990   0.235   1.449   1.171  2.0856  0.7257  0.0826
    1SOL    HW3 1991   0.211   1.526   1.043 -0.4874 -0.3626 -0.1085
    1SOL    MW4 1992   0.221   1.525   1.129  0.0444  0.2228 -0.1526
    1SOL     OW 1993   4.471   1.667   1.177  0.0403 -0.1737  0.3638
    1SOL    HW2 1994   4.499   1.758   1.168 -0.4148  0.1476  2.0232
    1SOL    HW3 1995   4.551   1.616   1.169  0.4680  0.4531  0.6436
    1SOL    MW4 1996   4.485   1.672   1.175  0.0367 -0.0485  0.6198
    1SOL     OW 1997   0.061   1.935   1.141  0.2790  0.3759 -0.5533
    1SOL    HW2 1998  -0.027   1.948   1.175  0.2962  0.1452 -0.4177
    1SOL    HW3 1999   0.053   1.948   1.046  0.3406  1.5813 -0.4003
    1SOL    MW4 2000   0.048   1.939   1.133  0.2895  0.5045 -0.5153
    1SOL     OW 2001   0.279   2.037   1.261 -0.1840 -0.0246  0.6596
    1SOL    HW2 2002   0.274   2.126   1.226  0.1258 -0.6131 -0.9365
    1SOL    HW3 2003   0.208   1.990   1.217 -1.0273 -0.3254  2.2880
    1SOL    MW4 2004   0.269   2.042   1.251 -0.2545 -0.1421  0.6639
    1SOL     OW 2005   0.258   2.301   1.105  0.0747 -0.1806  0.4527
    1SOL    HW2 2006   0.316   2.347   1.166 -0.2042 -0.5278  0.9792
    1SOL    HW3 2007   0.170   2.321   1.136 -0.0507 -0.9263  0.5799
    1SOL    MW4 2008   0.254   2.310   1.117  0.0214 -0.3247  0.5391
    1SOL     OW 2009   0.041   2.428   1.232 -0.0107 -0.1669  0.2018
    1SOL    HW2 2010   0.042   2.434   1.328  1.2273  0.0270  0.1853
    1SOL    HW3 2011  -0.037   2.376   1.212 -0.9932  0.8839  1.2469
    1SOL    MW4 2012   0.031   2.422   1.242  0.0231 -0.0029  0.3376
    1SOL     OW 2013   0.019   2.659   1.073  0.2174  0.2653 -0.2124
    1SOL    HW2 2014  -0.053   2.697   1.123 -0.7387  0.9510 -2.0797
    1SOL    HW3 2015   0.029   2.571   1.110 -1.3219  0.2957  0.3288
    1SOL    MW4 2016   0.011   2.652   1.085 -0.1116  0.3598 -0.3874
    1SOL     OW 2017   0.240   2.786   1.194 -0.3386  0.7758  1.0682
    1SOL    HW2 2018   0.221   2.797   1.287 -0.0517  0.3618  1.1752
    1SOL    HW3 2019   0.157   2.754   1.157  0.1097 -0.9820  1.5262
    1SOL    MW4 2020   0.226   2.783   1.201 -0.2416  0.4892  1.1429
    1SOL     OW 2021   0.193   3.051   1.129  0.8253 -0.2591  0.2691
    1SOL    HW2 2022   0.272   3.095   1.161  2.3495 -2.6371 -0.1481
    1SOL    HW3 2023   0.204   2.960   1.155 -2.5060 -0.3801  1.5390
    1SOL    MW4 2024   0.205   3.045   1.137  0.5869 -0.5889  0.3816
    1SOL     OW 2025   4.467   3.193   1.209  0.0981  0.1809  0.1598
    1SOL    HW2 2026   4.382   3.155   1.185 -0.0162  1.4824 -1.5373
    1SOL    HW3 2027   4.532   3.129   1.177 -0.1665  0.2854 -0.5906
    1SOL    MW4 2028   4.464   3.179   1.202  0.0482  0.3664 -0.1632
    1SOL     OW 2029   0.013   3.466   1.165 -0.1621 -0.0163  0.5724
    1SOL    HW2 2030   0.004   3.373   1.186 -2.3703  0.0924  0.2049
    1SOL    HW3 2031   0.022   3.468   1.070  1.6756  0.0344  0.7409
    1SOL    MW4 2032   0.013   3.454   1.155 -0.2110  0.0048  0.5460
    1SOL     OW 2033   0.212   3.651   1.230 -0.3878  0.6967 -0.3829
    1SOL    HW2 2034   0.219   3.634   1.324  0.2592 -0.1467 -0.5813
    1SOL    HW3 2035   0.148   3.587   1.199 -1.9935  2.1646 -0.2182
    1SOL    MW4 2036   0.204   3.640   1.238 -0.5143  0.7792 -0.3871
    1SOL     OW 2037   0.204   3.892   1.106  0.7882  0.1348 -0.3797
    1SOL    HW2 2038   0.126   3.932   1.144  1.1586  0.3313  0.1844
    1SOL    HW3 2039   0.211   3.807   1.149  0.6559 -0.0550 -0.7301
    1SOL    MW4 2040   0.195   3.886   1.117  0.8196  0.1357 -0.3515
    1SOL     OW 2041   4.480   4.010   1.245 -0.5380  0.4580 -0.4826
    1SOL    HW2 2042   4.484   4.001   1.340  1.6719  0.2305 -0.5758
    1SOL    HW3 2043   4.414   3.945   1.218  0.2680 -0.9048  0.7242
    1SOL    MW4 2044   4.472   4.000   1.254 -0.1402  0.2482 -0.3356
    1SOL     OW 2045   4.459   4.250   1.125 -0.0093  0.6411  0.2506
    1SOL    HW2 2046   4.537   4.295   1.158  0.6553 -0.3359  0.0205
    1SOL    HW3 2047   4.464   4.163   1.163 -1.3808  0.8083  0.8105
    1SOL    MW4 2048   4.470   4.245   1.134 -0.1025  0.5341  0.2941
    1SOL     OW 2049   0.200   4.384   1.219 -0.5056 -0.3763  0.2462
    1SOL    HW2 2050   0.211   4.379   1.314  0.5063 -0.4581  0.1342
    1SOL    HW3 2051   0.217   4.476   1.198 -2.0659 -0.0575  0.2886
    1SOL    MW4 2052   0.204   4.396   1.229 -0.5780 -0.3448  0.2370
    1SOL     OW 2053   0.643   4.650   1.128 -0.0571 -0.4869 -0.1481
    1SOL    HW2 2054   0.733   4.676   1.148 -0.3554 -0.2349  0.9298
    1SOL    HW3 2055   0.631   4.568   1.176 -1.1310  0.6725  1.6187
    1SOL    MW4 2056   0.654   4.642   1.137 -0.2382 -0.3007  0.2272
    1SOL     OW 2057   0.455   0.126   1.263  0.2665  0.3177  0.2968
    1SOL    HW2 2058   0.458   0.217   1.231 -0.0789  0.5160  0.8090
    1SOL    HW3 2059   0.524   0.081   1.215 -0.4804  0.5241 -0.9795
    1SOL    MW4 2060   0.465   0.132   1.253  0.1224  0.3711  0.1960
    1SOL     OW 2061   0.466   0.365   1.146 -0.3506  0.3075 -0.0220
    1SOL    HW2 2062   0.388   0.419   1.160  0.0844  0.8095  0.5242
    1SOL    HW3 2063   0.475   0.359   1.051 -0.4523  1.1411 -0.0870
    1SOL    MW4 2064   0.457   0.371   1.136 -0.3066  0.4837  0.0415
    1SOL     OW 2065   0.698   0.481   1.270  0.0879  0.1429  0.2439
    1SOL    HW2 2066   0.674   0.569   1.241 -1.6080  0.0519  1.3312
    1SOL    HW3 2067   0.632   0.424   1.233  0.0117 -0.4239  1.2223
    1SOL    MW4 2068   0.686   0.485   1.262 -0.1459  0.0561  0.5165
    1SOL     OW 2069   0.660   0.721   1.125 -0.2880 -0.3255  0.0054
    1SOL    HW2 2070   0.576   0.766   1.132 -0.5229 -0.5635 -1.1353
    1SOL    HW3 2071   0.680   0.723   1.031  0.8141 -0.5680  0.2311
    1SOL    MW4 2072   0.652   0.727   1.113 -0.1736 -0.3889 -0.1154
    1SOL     OW 2073   0.449   0.876   1.217 -0.2255 -0.1554  0.0417
    1SOL    HW2 2074   0.445   0.882   1.313 -0.6533  0.1394  0.0050
    1SOL    HW3 2075   0.470   0.965   1.188 -1.2463  0.0125 -0.1988
    1SOL    MW4 2076   0.451   0.889   1.226 -0.4166 -0.0944  0.0051
    1SOL     OW 2077   0.448   1.143   1.114  0.3166  0.4227 -0.0596
    1SOL    HW2 2078   0.530   1.178   1.151  0.1198  1.5031 -0.6531
    1SOL    HW3 2079   0.455   1.159   1.020 -1.0520  1.4922  0.0098
    1SOL    MW4 2080   0.460   1.150   1.107  0.1101  0.7062 -0.1289
    1SOL     OW 2081   0.679   1.278   1.225 -0.1992 -0.1855  0.1898
    1SOL    HW2 2082   0.757   1.227   1.203 -0.2979  0.1375 -0.9881
    1SOL    HW3 2083   0.694   1.363   1.183 -1.1195 -0.0778  0.0788
    1SOL    MW4 2084   0.691   1.283   1.216 -0.3336 -0.1286  0.0198
    1SOL     OW 2085   0.701   1.525   1.088 -0.0104 -0.4946 -0.4289
    1SOL    HW2 2086   0.772   1.575   1.129 -0.6169  0.4917 -0.5761
    1SOL    HW3 2087   0.622   1.554   1.134 -0.9655  2.0032 -3.4637
    1SOL    MW4 2088   0.700   1.535   1.100 -0.2164 -0.0350 -0.8488
    1SOL     OW 2089   0.450   1.659   1.204 -0.1794  0.1670  0.0066
    1SOL    HW2 2090   0.453   1.669   1.299 -1.9284 -0.5005  0.1573
    1SOL    HW3 2091   0.367   1.615   1.187 -0.4746  1.3924 -1.9315
    1SOL    MW4 2092   0.440   1.654   1.214 -0.4491  0.2407 -0.2292
    1SOL     OW 2093   0.480   1.913   1.129 -0.2124  0.1855  0.1325
    1SOL    HW2 2094   0.471   1.825   1.165 -0.5064  0.3325  0.4344
    1SOL    HW3 2095   0.420   1.966   1.182 -1.1392  0.2933 -0.9920
    1SOL    MW4 2096   0.471   1.909   1.141 -0.3735  0.2192  0.0238
    1SOL     OW 2097   0.704   2.026   1.230 -0.5904 -0.6723  0.0401
    1SOL    HW2 2098   0.681   2.032   1.323 -0.4555 -0.6954  0.0764
    1SOL    HW3 2099   0.629   1.984   1.189 -0.5159 -0.9582  0.1946
    1SOL    MW4 2100   0.691   2.021   1.237 -0.5627 -0.7133  0.0653
    1SOL     OW 2101   0.670   2.277   1.095 -0.0155 -0.5031 -0.3020
    1SOL    HW2 2102   0.599   2.308   1.151  0.8167  0.3159  0.3059
    1SOL    HW3 2103   0.698   2.195   1.136  2.1560  1.2684  1.8566
    1SOL    MW4 2104   0.664   2.270   1.107  0.3808 -0.1614  0.0629
    1SOL     OW 2105   0.463   2.403   1.253 -0.2340  0.3282  0.3402
    1SOL    HW2 2106   0.432   2.416   1.343 -0.2567  0.6438  0.2887
    1SOL    HW3 2107   0.476   2.492   1.220 -0.6435  0.2231 -0.1131
    1SOL    MW4 2108   0.460   2.417   1.260 -0.2910  0.3560  0.2737
    1SOL     OW 2109   0.481   2.686   1.112 -0.5491  0.3295  0.5458
    1SOL    HW2 2110   0.396   2.720   1.140 -0.6497 -0.7931  1.6509
    1SOL    HW3 2111   0.474   2.680   1.017 -2.1747 -0.9464  0.7248
    1SOL    MW4 2112   0.469   2.690   1.103 -0.7768  0.0129  0.7153
    1SOL     OW 2113   0.677   2.858   1.215  0.0577 -0.1308  0.1912
    1SOL    HW2 2114   0.668   2.946   1.178 -0.8205  0.0670  0.8502
    1SOL    HW3 2115   0.607   2.807   1.174  1.5423 -0.9391 -1.3686
    1SOL    MW4 2116   0.667   2.863   1.205  0.1376 -0.2117  0.0724
    1SOL     OW 2117   0.652   3.119   1.109 -0.1582  0.2596  0.2373
    1SOL    HW2 2118   0.727   3.168   1.141  0.0428  0.4915 -0.5642
    1SOL    HW3 2119   0.677   3.092   1.020 -0.6334 -0.4904  0.3232
    1SOL    MW4 2120   0.665   3.122   1.101 -0.1944  0.1910  0.1429
    1SOL     OW 2121   0.406   3.217   1.203  0.0039 -0.1078  0.1089
    1SOL    HW2 2122   0.414   3.310   1.182 -1.5626 -0.2535 -1.2974
    1SOL    HW3 2123   0.492   3.180   1.182 -0.0436  0.6348 -1.5032
    1SOL    MW4 2124   0.418   3.224   1.198 -0.2090 -0.0291 -0.2893
    1SOL     OW 2125   0.412   3.500   1.108  0.1780 -0.2648  0.0056
    1SOL    HW2 2126   0.496   3.538   1.131  0.2851 -1.2796  1.3467
    1SOL    HW3 2127   0.347   3.555   1.153  0.3043 -1.3326  1.5166
    1SOL    MW4 2128   0.414   3.512   1.117  0.2088 -0.5398  0.3821
    1SOL     OW 2129   0.662   3.616   1.176  0.0342  0.3203 -0.1658
    1SOL    HW2 2130   0.668   3.616   1.272  1.4771  0.3749 -0.2395
    1SOL    HW3 2131   0.649   3.708   1.153  0.3170  0.3918 -0.0459
    1SOL    MW4 2132   0.661   3.629   1.186  0.2619  0.3366 -0.1596
    1SOL     OW 2133   0.640   3.877   1.124 -0.0526  0.1876  0.3227
    1SOL    HW2 2134   0.559   3.913   1.159 -1.1554 -2.7623  0.9977
    1SOL    HW3 2135   0.630   3.884   1.029 -1.0948 -0.1283  0.4020
    1SOL    MW4 2136   0.628   3.883   1.116 -0.3356 -0.2429  0.4222
    1SOL     OW 2137   0.421   4.000   1.220 -0.1903 -0.2250 -0.2028
    1SOL    HW2 2138   0.426   4.090   1.188 -0.4978  0.2319  0.9833
    1SOL    HW3 2139   0.345   3.963   1.177 -0.3433  0.2369 -0.3365
    1SOL    MW4 2140   0.412   4.007   1.210 -0.2511 -0.1040 -0.0639
    1SOL     OW 2141   0.425   4.255   1.122  0.0781  0.3955 -0.1643
    1SOL    HW2 2142   0.501   4.293   1.166 -0.3800  0.3040  0.7075
    1SOL    HW3 2143   0.350   4.299   1.162 -0.4396 -1.1691  0.6033
    1SOL    MW4 2144   0.425   4.266   1.133 -0.0507  0.1769  0.0520
    1SOL     OW 2145   0.642   4.390   1.250 -0.4267 -0.4389  0.8436
    1SOL    HW2 2146   0.635   4.409   1.344 -1.7020 -0.1750  0.7093
    1SOL    HW3 2147   0.731   4.357   1.238 -0.7777 -2.0325  2.4224
    1SOL    MW4 2148   0.652   4.388   1.261 -0.6412 -0.6146  1.0341
    1SOL     OW 2149   1.107   4.632   1.120  0.1535  0.4370 -0.1547
    1SOL    HW2 2150   1.115   4.547   1.164 -0.8488  0.2465 -0.3292
    1SOL    HW3 2151   1.102   4.610   1.027  2.6382  0.8599 -0.4326
    1SOL    MW4 2152   1.108   4.618   1.113  0.3490  0.4683 -0.2143
    1SOL     OW 2153   0.876   0.096   1.196  0.3240 -0.5957 -0.8323
    1SOL    HW2 2154   0.879   0.092   1.291  2.4027  2.7336 -0.6859
    1SOL    HW3 2155   0.957   0.053   1.168  0.0823 -0.9007 -1.0645
    1SOL    MW4 2156   0.887   0.090   1.205  0.5664 -0.1967 -0.8436
    1SOL     OW 2157   0.914   0.366   1.127 -0.2572 -0.1862  0.3327
    1SOL    HW2 2158   0.901   0.272   1.139  0.2645 -0.1545  1.1910
    1SOL    HW3 2159   0.845   0.407   1.179 -0.3927 -0.0970  0.0799
    1SOL    MW4 2160   0.903   0.359   1.135 -0.2062 -0.1703  0.4126
    1SOL     OW 2161   1.135   0.503   1.232  0.1042  0.2069  0.1516
    1SOL    HW2 2162   1.126   0.512   1.327  0.6541 -1.1653  0.3362
    1SOL    HW3 2163   1.060   0.451   1.206  1.1816 -1.3698  0.1496
    1SOL    MW4 2164   1.124   0.497   1.241  0.3190 -0.1822  0.1757
    1SOL     OW 2165   1.117   0.759   1.138  0.0195 -0.2457  0.4335
    1SOL    HW2 2166   1.042   0.794   1.186  0.4319 -0.3837  1.1945
    1SOL    HW3 2167   1.123   0.668   1.168  0.4298 -0.2637  0.2920
    1SOL    MW4 2168   1.108   0.752   1.148  0.1279 -0.2663  0.5152
    1SOL     OW 2169   0.881   0.863   1.248 -0.3522 -0.0169 -0.1572
    1SOL    HW2 2170   0.887   0.955   1.225 -0.4863 -0.0298 -0.2399
    1SOL    HW3 2171   0.812   0.827   1.192 -0.9677  0.0475  0.5502
    1SOL    MW4 2172   0.873   0.870   1.238 -0.4511 -0.0101 -0.0750
    1SOL     OW 2173   0.916   1.132   1.149  0.0661  0.5435 -0.5003
    1SOL    HW2 2174   0.994   1.187   1.156  1.0790 -0.9356 -0.0080
    1SOL    HW3 2175   0.905   1.119   1.054 -0.2187  1.6132 -0.6276
    1SOL    MW4 2176   0.925   1.138   1.137  0.1622  0.4895 -0.4522
    1SOL     OW 2177   1.133   1.284   1.223 -0.1495  0.1844 -0.1616
    1SOL    HW2 2178   1.131   1.265   1.317 -0.0872 -1.2367 -0.4471
    1SOL    HW3 2179   1.218   1.252   1.194 -0.1235  0.7287 -0.6957
    1SOL    MW4 2180   1.144   1.277   1.232 -0.1378  0.0688 -0.2699
    1SOL     OW 2181   1.139   1.546   1.124  0.1766 -0.9646  0.1229
    1SOL    HW2 2182   1.138   1.453   1.148 -1.7200 -1.2133 -0.8256
    1SOL    HW3 2183   1.122   1.547   1.030  0.0317  0.3590  0.1468
    1SOL    MW4 2184   1.136   1.534   1.115 -0.0927 -0.8229  0.0007
    1SOL     OW 2185   0.901   1.653   1.240  0.1855 -0.0621 -0.0914
    1SOL    HW2 2186   0.902   1.742   1.207 -1.3806  0.0282  0.0680
    1SOL    HW3 2187   0.984   1.615   1.210  1.8636  2.0655  1.6142
    1SOL    MW4 2188   0.912   1.659   1.232  0.2003  0.2306  0.1547
    1SOL     OW 2189   0.917   1.914   1.106  0.0742  0.0729  0.2222
    1SOL    HW2 2190   0.995   1.961   1.132  0.2958 -0.2436  0.1315
    1SOL    HW3 2191   0.844   1.968   1.137  0.3253  0.6512 -0.2006
    1SOL    MW4 2192   0.917   1.927   1.113  0.1366  0.1074  0.1545
    1SOL     OW 2193   1.102   2.067   1.228 -0.7549  0.6388 -0.2288
    1SOL    HW2 2194   1.118   2.069   1.322 -0.3873 -0.8593 -0.2567
    1SOL    HW3 2195   1.133   2.153   1.197  1.0195  0.3746  0.7191
    1SOL    MW4 2196   1.109   2.079   1.236 -0.4723  0.4063 -0.1074
    1SOL     OW 2197   1.153   2.316   1.086 -0.2708  0.2259  0.1246
    1SOL    HW2 2198   1.227   2.375   1.100 -0.1563  0.3062 -0.7983
    1SOL    HW3 2199   1.078   2.361   1.124  0.0075  0.4942  0.3550
    1SOL    MW4 2200   1.153   2.330   1.093 -0.2189  0.2716  0.0333
    1SOL     OW 2201   0.898   2.419   1.154  0.5683 -0.0423 -0.1728
    1SOL    HW2 2202   0.900   2.411   1.249 -0.5612 -0.4656 -0.1755
    1SOL    HW3 2203   0.815   2.378   1.128  0.5372  0.6959 -1.2733
    1SOL    MW4 2204   0.887   2.412   1.163  0.4152 -0.0005 -0.3183
    1SOL     OW 2205   0.893   2.713   1.123 -0.7481  0.0578  0.2088
    1SOL    HW2 2206   0.874   2.619   1.134 -0.0869  0.1063  1.8217
    1SOL    HW3 2207   0.822   2.757   1.169  0.1895  0.3225  1.3970
    1SOL    MW4 2208   0.881   2.706   1.130 -0.5371  0.0989  0.5784
    1SOL     OW 2209   1.107   2.852   1.224 -0.0558 -0.2958  0.0692
    1SOL    HW2 2210   1.137   2.822   1.309 -0.8549 -0.7823  0.1838
    1SOL    HW3 2211   1.035   2.794   1.202 -0.6615  0.6093 -0.3729
    1SOL    MW4 2212   1.102   2.840   1.232 -0.2412 -0.2406  0.0261
    1SOL     OW 2213   1.085   3.109   1.122 -0.0217 -0.5040 -0.1040
    1SOL    HW2 2214   1.090   3.024   1.167  1.3326 -0.4412 -0.1088
    1SOL    HW3 2215   1.072   3.087   1.030 -0.0517 -0.7065 -0.0511
    1SOL    MW4 2216   1.084   3.095   1.116  0.1529 -0.5226 -0.0976
    1SOL     OW 2217   0.865   3.259   1.210 -0.3777  0.0881  0.5371
    1SOL    HW2 2218   0.850   3.346   1.175 -0.4078  0.6347  1.8869
    1SOL    HW3 2219   0.945   3.229   1.166 -0.8485  0.4438 -0.5652
    1SOL    MW4 2220   0.874   3.266   1.199 -0.4439  0.2072  0.5698
    1SOL     OW 2221   0.920   3.509   1.107  0.0034 -0.1896  0.4232
    1SOL    HW2 2222   0.837   3.550   1.131  0.3890  0.3135  0.9023
    1SOL    HW3 2223   0.929   3.526   1.013 -0.1497  0.2591  0.4892
    1SOL    MW4 2224   0.910   3.517   1.098  0.0341 -0.0639  0.4952
    1SOL     OW 2225   1.118   3.629   1.240 -0.4037  0.0581  0.1060
    1SOL    HW2 2226   1.196   3.588   1.204  0.1474  0.1189  1.2025
    1SOL    HW3 2227   1.045   3.583   1.199  0.2064  0.5612 -1.5544
    1SOL    MW4 2228   1.119   3.618   1.230 -0.2505  0.1323  0.0316
    1SOL     OW 2229   1.120   3.853   1.063 -0.4234 -0.2862  0.0126
    1SOL    HW2 2230   1.048   3.904   1.098 -0.8582  0.1630 -1.5079
    1SOL    HW3 2231   1.119   3.772   1.113 -1.3519  0.1318  0.6748
    1SOL    MW4 2232   1.111   3.849   1.074 -0.6031 -0.1717 -0.1007
    1SOL     OW 2233   0.879   3.997   1.172 -0.0580 -0.4316 -0.2329
    1SOL    HW2 2234   0.873   4.018   1.265  1.2313  0.2366 -0.2892
    1SOL    HW3 2235   0.798   3.951   1.153 -0.1579 -0.9345  1.3173
    1SOL    MW4 2236   0.868   3.994   1.182  0.0989 -0.4101 -0.0356
    1SOL     OW 2237   0.876   4.269   1.105 -0.1366  0.3727  0.4840
    1SOL    HW2 2238   0.890   4.174   1.107 -1.5051  0.1889  2.0429
    1SOL    HW3 2239   0.878   4.291   1.012 -2.3509 -1.5881 -0.0827
    1SOL    MW4 2240   0.878   4.259   1.093 -0.6093  0.0901  0.6149
    1SOL     OW 2241   1.120   4.365   1.204  0.0857 -0.2089 -0.4120
    1SOL    HW2 2242   1.115   4.347   1.298  0.6823 -0.6334 -0.4554
    1SOL    HW3 2243   1.037   4.335   1.168 -1.0240  1.9317  0.3016
    1SOL    MW4 2244   1.109   4.359   1.212  0.0180  0.0172 -0.3237
    1SOL     OW 2245   1.522   4.612   1.124 -0.0925 -0.1502 -0.0692
    1SOL    HW2 2246   1.600   4.660   1.152  0.9517 -1.1507 -1.2169
    1SOL    HW3 2247   1.536   4.523   1.155 -1.9291  0.1793  1.8600
    1SOL    MW4 2248   1.534   4.607   1.132 -0.1971 -0.2389  0.0340
    1SOL     OW 2249   1.319   0.107   1.225 -0.0128 -0.2016 -0.5572
    1SOL    HW2 2250   1.388   0.047   1.196 -0.5037 -0.6761 -0.7490
    1SOL    HW3 2251   1.238   0.069   1.191 -0.4109  0.1638 -0.0324
    1SOL    MW4 2252   1.318   0.094   1.217 -0.1302 -0.2160 -0.5133
    1SOL     OW 2253   1.371   0.385   1.161  0.0435 -0.6469 -0.1913
    1SOL    HW2 2254   1.360   0.293   1.188 -1.1396 -0.7034 -0.8562
    1SOL    HW3 2255   1.290   0.427   1.187  0.7024  0.2935  0.3800
    1SOL    MW4 2256   1.359   0.378   1.168 -0.0256 -0.5302 -0.2035
    1SOL     OW 2257   1.611   0.495   1.245  0.1510  0.1539 -0.1163
    1SOL    HW2 2258   1.606   0.583   1.208 -0.8325 -0.3065 -1.1066
    1SOL    HW3 2259   1.528   0.453   1.219 -0.1242 -0.5057  1.7614
    1SOL    MW4 2260   1.599   0.501   1.236 -0.0150  0.0061  0.0007
    1SOL     OW 2261   1.586   0.752   1.151 -0.4320 -0.0245  0.1139
    1SOL    HW2 2262   1.648   0.822   1.172 -0.8539  0.2191  0.5526
    1SOL    HW3 2263   1.600   0.735   1.058  0.0356  0.2840  0.1267
    1SOL    MW4 2264   1.596   0.759   1.141 -0.4261  0.0484  0.1734
    1SOL     OW 2265   1.337   0.849   1.270 -0.1703  0.3045  0.3815
    1SOL    HW2 2266   1.411   0.815   1.219  1.1967  0.4879  2.1755
    1SOL    HW3 2267   1.260   0.808   1.231  0.8127  0.5463 -1.8979
    1SOL    MW4 2268   1.337   0.839   1.258  0.1398  0.3605  0.3175
    1SOL     OW 2269   1.351   1.142   1.150 -0.0588  0.6722 -0.2256
    1SOL    HW2 2270   1.342   1.056   1.190 -0.8669  0.5260 -0.7038
    1SOL    HW3 2271   1.359   1.124   1.056 -0.1122  1.1121 -0.3152
    1SOL    MW4 2272   1.351   1.128   1.143 -0.1724  0.7110 -0.3005
    1SOL     OW 2273   1.553   1.310   1.236 -0.9477 -0.4723  0.2898
    1SOL    HW2 2274   1.630   1.262   1.206 -0.7430 -0.3369  0.5922
    1SOL    HW3 2275   1.479   1.268   1.193 -0.5813  0.2509 -1.0745
    1SOL    MW4 2276   1.554   1.298   1.226 -0.8725 -0.3591  0.1497
    1SOL     OW 2277   1.582   1.558   1.109 -0.3259 -0.0782 -0.1046
    1SOL    HW2 2278   1.658   1.593   1.155 -0.6303 -0.5179  0.7470
    1SOL    HW3 2279   1.565   1.474   1.150 -0.5343 -0.5436 -1.1133
    1SOL    MW4 2280   1.589   1.552   1.120 -0.3936 -0.1978 -0.1253
    1SOL     OW 2281   1.361   1.691   1.202  0.0053 -0.2100 -0.1743
    1SOL    HW2 2282   1.440   1.640   1.190  0.7066  0.6213  0.7948
    1SOL    HW3 2283   1.290   1.634   1.172  0.7672 -1.7478  0.8942
    1SOL    MW4 2284   1.362   1.677   1.197  0.1984 -0.3031  0.0945
    1SOL     OW 2285   1.339   1.953   1.085 -0.3428 -0.0196 -0.3781
    1SOL    HW2 2286   1.330   1.868   1.128  0.6301 -0.9265 -1.9250
    1SOL    HW3 2287   1.262   2.002   1.112 -1.4142 -1.7422 -0.2456
    1SOL    MW4 2288   1.328   1.948   1.094 -0.3557 -0.3664 -0.5647
    1SOL     OW 2289   1.544   2.098   1.208 -0.4739 -0.1429  0.4473
    1SOL    HW2 2290   1.534   2.189   1.182  0.8264 -0.3443 -0.8359
    1SOL    HW3 2291   1.467   2.054   1.171  0.5104 -0.1234 -1.7353
    1SOL    MW4 2292   1.533   2.104   1.199 -0.1723 -0.1669 -0.0100
    1SOL     OW 2293   1.539   2.362   1.095 -0.4996  0.0281 -0.1347
    1SOL    HW2 2294   1.467   2.424   1.109 -0.6044 -0.1924  0.3054
    1SOL    HW3 2295   1.543   2.352   1.000 -0.7255  0.4242 -0.1896
    1SOL    MW4 2296   1.530   2.369   1.085 -0.5432  0.0515 -0.0838
    1SOL     OW 2297   1.325   2.508   1.184  0.2994  0.0609 -0.3609
    1SOL    HW2 2298   1.312   2.516   1.278 -0.4608 -1.1931 -0.3427
    1SOL    HW3 2299   1.314   2.597   1.150 -0.4090  0.3526  0.6243
    1SOL    MW4 2300   1.322   2.521   1.192  0.1055 -0.0660 -0.2285
    1SOL     OW 2301   1.301   2.766   1.066 -0.2583 -0.0381 -0.7242
    1SOL    HW2 2302   1.370   2.821   1.103 -0.8369  0.4670 -0.3660
    1SOL    HW3 2303   1.222   2.791   1.115 -0.4626 -1.4521 -0.3040
    1SOL    MW4 2304   1.299   2.777   1.077 -0.3616 -0.1583 -0.6216
    1SOL     OW 2305   1.525   2.854   1.221 -0.0571 -0.3969  0.4706
    1SOL    HW2 2306   1.604   2.799   1.220  1.7976  1.9922  3.7519
    1SOL    HW3 2307   1.550   2.932   1.172 -0.6421  0.0244  0.8434
    1SOL    MW4 2308   1.539   2.857   1.215  0.1105 -0.0262  0.9527
    1SOL     OW 2309   1.568   3.091   1.059 -0.1772 -0.1937  0.1419
    1SOL    HW2 2310   1.640   3.132   1.106 -0.1976  0.3174 -0.2628
    1SOL    HW3 2311   1.490   3.135   1.091 -0.3333 -0.9029  0.7439
    1SOL    MW4 2312   1.567   3.102   1.069 -0.2004 -0.2198  0.1681
    1SOL     OW 2313   1.313   3.222   1.178 -0.2301 -0.3659 -0.0756
    1SOL    HW2 2314   1.318   3.211   1.273 -1.2109 -0.9329 -0.0884
    1SOL    HW3 2315   1.231   3.180   1.153  1.1179 -2.2721 -1.4841
    1SOL    MW4 2316   1.303   3.215   1.187 -0.1816 -0.6921 -0.2632
    1SOL     OW 2317   1.329   3.498   1.137  0.1741  0.0029 -0.1362
    1SOL    HW2 2318   1.309   3.407   1.160 -1.0121  0.2401 -0.1524
    1SOL    HW3 2319   1.335   3.497   1.041 -0.4953  0.0501 -0.1854
    1SOL    MW4 2320   1.327   3.486   1.127 -0.0707  0.0401 -0.1450
    1SOL     OW 2321   1.552   3.647   1.243 -0.0057 -0.2688  0.2012
    1SOL    HW2 2322   1.555   3.733   1.201  0.7138 -0.2574  0.2693
    1SOL    HW3 2323   1.477   3.603   1.203  0.0165  0.1523 -0.3007
    1SOL    MW4 2324   1.543   3.652   1.232  0.0921 -0.2115  0.1440
    1SOL     OW 2325   1.567   3.898   1.137 -0.1095  0.0978 -0.1932
    1SOL    HW2 2326   1.485   3.945   1.149  0.7520  1.8107 -0.8173
    1SOL    HW3 2327   1.579   3.894   1.042  0.7398  0.2762 -0.1063
    1SOL    MW4 2328   1.558   3.904   1.126  0.1163  0.3474 -0.2640
    1SOL     OW 2329   1.333   4.003   1.213  0.2279 -0.0499 -0.0050
    1SOL    HW2 2330   1.340   4.088   1.170  0.0963  0.0722  0.2074
    1SOL    HW3 2331   1.267   3.956   1.163 -0.2539  0.2604  0.3321
    1SOL    MW4 2332   1.325   4.008   1.201  0.1470  0.0072  0.0675
    1SOL     OW 2333   1.337   4.256   1.088  0.0100 -0.3027 -0.0064
    1SOL    HW2 2334   1.259   4.304   1.117 -0.8069 -0.4065 -1.9478
    1SOL    HW3 2335   1.339   4.268   0.993  1.2661 -1.9247 -0.2162
    1SOL    MW4 2336   1.327   4.264   1.080  0.0678 -0.5302 -0.2903
    1SOL     OW 2337   1.555   4.352   1.234  0.0836  0.0989  0.0911
    1SOL    HW2 2338   1.549   4.377   1.327  1.1342 -0.7302  0.3897
    1SOL    HW3 2339   1.466   4.325   1.211  0.4351 -2.7150  1.7452
    1SOL    MW4 2340   1.542   4.352   1.243  0.2685 -0.3815  0.3488
    1SOL     OW 2341   2.030   4.650   1.122 -0.1261 -0.2000  0.6330
    1SOL    HW2 2342   2.011   4.557   1.134 -1.0317 -0.1030 -0.0141
    1SOL    HW3 2343   2.036   4.661   1.027 -0.6972  0.5463  0.6801
    1SOL    MW4 2344   2.028   4.639   1.111 -0.3211 -0.0887  0.5538
    1SOL     OW 2345   1.769   0.094   1.176  0.0015 -0.5155 -0.1308
    1SOL    HW2 2346   1.775   0.189   1.164 -0.1338 -0.5681 -0.6080
    1SOL    HW3 2347   1.860   0.064   1.173  0.1909 -0.1847  1.8306
    1SOL    MW4 2348   1.782   0.103   1.174  0.0086 -0.4788  0.0651
    1SOL     OW 2349   1.792   0.361   1.101 -0.0270  0.6545 -0.0987
    1SOL    HW2 2350   1.736   0.414   1.157 -2.2151 -1.5340 -0.1239
    1SOL    HW3 2351   1.763   0.380   1.012 -0.7432 -0.4316 -0.1140
    1SOL    MW4 2352   1.781   0.370   1.097 -0.4102  0.2225 -0.1041
    1SOL     OW 2353   2.039   0.451   1.229  0.2758 -0.2136 -0.5939
    1SOL    HW2 2354   2.012   0.466   1.320  0.4096  0.5895 -0.6759
    1SOL    HW3 2355   1.961   0.417   1.186 -0.3731  1.2617 -0.6240
    1SOL    MW4 2356   2.025   0.449   1.235  0.2079  0.0870 -0.6086
    1SOL     OW 2357   2.005   0.706   1.148 -0.3485  0.1658  0.1159
    1SOL    HW2 2358   2.023   0.616   1.175 -0.5121  0.3034  0.6831
    1SOL    HW3 2359   2.025   0.707   1.054  0.2920 -0.2928  0.2460
    1SOL    MW4 2360   2.010   0.694   1.139 -0.2859  0.1234  0.2079
    1SOL     OW 2361   1.801   0.896   1.252  0.1222  0.2338 -0.6349
    1SOL    HW2 2362   1.800   0.902   1.348 -0.6219 -0.4620 -0.6019
    1SOL    HW3 2363   1.866   0.829   1.233 -1.3990 -1.3059 -0.5248
    1SOL    MW4 2364   1.810   0.888   1.262 -0.1767 -0.0610 -0.6161
    1SOL     OW 2365   1.786   1.172   1.198 -0.2177 -0.0488  0.2315
    1SOL    HW2 2366   1.790   1.080   1.221  1.0862  0.2188  1.1125
    1SOL    HW3 2367   1.791   1.173   1.102  0.1726 -0.8616  0.2451
    1SOL    MW4 2368   1.787   1.160   1.188  0.0058 -0.1206  0.3495
    1SOL     OW 2369   2.015   1.312   1.215  0.3119 -0.1639  0.6985
    1SOL    HW2 2370   2.076   1.240   1.204 -0.1996 -0.5151  0.1024
    1SOL    HW3 2371   1.928   1.271   1.216 -0.0288  0.4992 -0.3877
    1SOL    MW4 2372   2.011   1.297   1.213  0.1996 -0.1229  0.4766
    1SOL     OW 2373   2.030   1.577   1.105  0.0107 -0.2006  0.1100
    1SOL    HW2 2374   2.044   1.489   1.139  0.8589 -0.0381  0.1806
    1SOL    HW3 2375   2.012   1.564   1.012  0.2842 -0.4357  0.0891
    1SOL    MW4 2376   2.029   1.564   1.098  0.1585 -0.2102  0.1166
    1SOL     OW 2377   1.803   1.640   1.245  0.2399  0.5767  0.0382
    1SOL    HW2 2378   1.791   1.730   1.215  1.8384  1.0034  0.6097
    1SOL    HW3 2379   1.881   1.610   1.198  0.3514 -0.1390  0.6741
    1SOL    MW4 2380   1.812   1.648   1.235  0.4656  0.5386  0.1974
    1SOL     OW 2381   1.742   1.895   1.128 -0.1574 -0.1216 -0.4887
    1SOL    HW2 2382   1.668   1.954   1.144  0.2000  0.4500 -0.9293
    1SOL    HW3 2383   1.757   1.901   1.034  1.2618  0.7452 -0.2196
    1SOL    MW4 2384   1.734   1.904   1.118  0.0770  0.0682 -0.5113
    1SOL     OW 2385   1.967   2.036   1.221  0.0963  0.2856  0.1912
    1SOL    HW2 2386   1.972   2.042   1.316  0.0694  1.2480  0.1287
    1SOL    HW3 2387   1.886   1.988   1.204  0.6160 -0.7948  0.6796
    1SOL    MW4 2388   1.957   2.030   1.231  0.1613  0.2701  0.2474
    1SOL     OW 2389   1.983   2.289   1.110 -0.5008 -0.2915 -0.0940
    1SOL    HW2 2390   2.049   2.328   1.167  1.6170 -0.5312 -2.2779
    1SOL    HW3 2391   1.966   2.203   1.148 -1.0097  0.5337  1.5787
    1SOL    MW4 2392   1.990   2.283   1.122 -0.2885 -0.2143 -0.1615
    1SOL     OW 2393   1.778   2.445   1.222 -0.0464 -0.5313  0.6045
    1SOL    HW2 2394   1.855   2.402   1.185 -0.5535 -0.3899 -0.6402
    1SOL    HW3 2395   1.705   2.415   1.167 -0.9749 -1.1122  2.1152
    1SOL    MW4 2396   1.779   2.435   1.210 -0.2357 -0.5891  0.6397
    1SOL     OW 2397   1.750   2.712   1.144  0.2106 -0.5492 -0.3201
    1SOL    HW2 2398   1.755   2.625   1.182  0.8370 -0.9083 -1.1857
    1SOL    HW3 2399   1.750   2.697   1.049  1.7698  0.4311 -0.5074
    1SOL    MW4 2400   1.751   2.699   1.136  0.4989 -0.4671 -0.4591
    1SOL     OW 2401   1.998   2.835   1.245 -0.1112 -0.0763 -0.0930
    1SOL    HW2 2402   2.013   2.918   1.200 -0.0503 -0.6360 -1.1085
    1SOL    HW3 2403   1.917   2.801   1.207 -1.0096  0.2807  1.4612
    1SOL    MW4 2404   1.989   2.842   1.234 -0.2217 -0.1030 -0.0219
    1SOL     OW 2405   2.009   3.100   1.130  0.0240  0.4523  0.8806
    1SOL    HW2 2406   1.934   3.155   1.152  1.0792  1.9471  0.8384
    1SOL    HW3 2407   2.010   3.098   1.034 -0.7014 -0.6397  0.8808
    1SOL    MW4 2408   2.000   3.107   1.120  0.0674  0.5054  0.8751
    1SOL     OW 2409   1.784   3.252   1.164 -0.0080  0.3956  0.1599
    1SOL    HW2 2410   1.771   3.247   1.259  0.1901  2.1935  0.3066
    1SOL    HW3 2411   1.768   3.344   1.143  1.4229  0.3191 -1.3274
    1SOL    MW4 2412   1.780   3.263   1.174  0.2067  0.6227 -0.0170
    1SOL     OW 2413   1.758   3.507   1.059  0.1341  0.5396 -0.0375
    1SOL    HW2 2414   1.851   3.525   1.074  0.0689 -0.1474  1.2513
    1SOL    HW3 2415   1.713   3.574   1.111 -0.0851  0.3086  0.0703
    1SOL    MW4 2416   1.764   3.518   1.068  0.0966  0.4184  0.1467
    1SOL     OW 2417   2.012   3.560   1.180 -0.2296  0.2764 -0.5280
    1SOL    HW2 2418   2.008   3.557   1.275  0.2984  0.3222 -0.5005
    1SOL    HW3 2419   2.100   3.527   1.159 -0.2817  0.4270 -0.9889
    1SOL    MW4 2420   2.023   3.555   1.189 -0.1669  0.3023 -0.5853
    1SOL     OW 2421   1.966   3.827   1.079 -0.0750  0.2194 -0.2521
    1SOL    HW2 2422   1.904   3.880   1.130 -1.1734 -0.6603 -0.6606
    1SOL    HW3 2423   1.975   3.746   1.129 -0.8570 -0.4868 -1.2502
    1SOL    MW4 2424   1.959   3.823   1.092 -0.3233  0.0098 -0.4377
    1SOL     OW 2425   1.818   4.004   1.233  0.0312  0.0478  0.0698
    1SOL    HW2 2426   1.818   4.029   1.326  0.0690 -0.8959  0.3366
    1SOL    HW3 2427   1.731   3.966   1.220 -0.3659  1.1725 -0.5618
    1SOL    MW4 2428   1.806   4.002   1.244 -0.0161  0.0715  0.0218
    1SOL     OW 2429   1.755   4.230   1.097 -1.3389 -0.4177 -0.1295
    1SOL    HW2 2430   1.783   4.152   1.144 -1.0353 -0.6401 -0.6686
    1SOL    HW3 2431   1.678   4.261   1.144 -0.5833 -0.1901  0.9790
    1SOL    MW4 2432   1.749   4.224   1.109 -1.1991 -0.4177 -0.0544
    1SOL     OW 2433   1.982   4.393   1.161  0.1843 -0.1785 -0.0529
    1SOL    HW2 2434   2.000   4.382   1.254 -3.7995  0.2636  0.8390
    1SOL    HW3 2435   1.898   4.348   1.147 -1.3195  3.2322 -2.5684
    1SOL    MW4 2436   1.973   4.385   1.172 -0.5398  0.3295 -0.2671
    1SOL     OW 2437   2.440   4.649   1.066 -0.0049 -0.4275 -0.2750
    1SOL    HW2 2438   2.525   4.677   1.102  0.1522 -2.5022  1.0370
    1SOL    HW3 2439   2.376   4.680   1.130  0.0377 -1.5487  0.3285
    1SOL    MW4 2440   2.443   4.657   1.080  0.0215 -0.8492 -0.0223
    1SOL     OW 2441   2.279   0.117   1.230  0.0645 -0.4838  0.0322
    1SOL    HW2 2442   2.280   0.207   1.198  0.0923 -0.1127  1.0464
    1SOL    HW3 2443   2.194   0.083   1.205 -0.6203  0.3842  1.1432
    1SOL    MW4 2444   2.268   0.124   1.223 -0.0224 -0.3204  0.3127
    1SOL     OW 2445   2.279   0.373   1.103  0.1179 -0.2254 -0.1743
    1SOL    HW2 2446   2.205   0.394   1.160  0.1678  0.0594 -0.2134
    1SOL    HW3 2447   2.246   0.389   1.015  0.1614 -0.2997 -0.2042
    1SOL    MW4 2448   2.265   0.378   1.099  0.1302 -0.1976 -0.1833
    1SOL     OW 2449   2.494   0.522   1.175  0.1247  0.3766 -0.3261
    1SOL    HW2 2450   2.500   0.508   1.269 -0.2099 -0.2541 -0.3991
    1SOL    HW3 2451   2.413   0.479   1.149 -0.2609  1.3542 -0.7547
    1SOL    MW4 2452   2.484   0.515   1.184  0.0298  0.4224 -0.3922
    1SOL     OW 2453   2.452   0.799   1.093 -0.0281 -0.3353  0.1948
    1SOL    HW2 2454   2.468   0.707   1.111  1.9552 -0.0841 -0.2654
    1SOL    HW3 2455   2.451   0.806   0.998 -0.3016  0.0953  0.2252
    1SOL    MW4 2456   2.454   0.788   1.083  0.1972 -0.2453  0.1380
    1SOL     OW 2457   2.223   0.851   1.236 -0.2727  0.0487 -0.3162
    1SOL    HW2 2458   2.303   0.829   1.190 -0.3357  2.3589 -1.5741
    1SOL    HW3 2459   2.156   0.795   1.196  0.1948  0.0407 -1.0918
    1SOL    MW4 2460   2.224   0.840   1.225 -0.2193  0.3525 -0.5845
    1SOL     OW 2461   2.193   1.106   1.135 -0.1804  0.0644  0.0308
    1SOL    HW2 2462   2.278   1.149   1.144  0.5752 -1.0471 -1.4544
    1SOL    HW3 2463   2.202   1.026   1.186 -0.0529 -0.4088 -0.7139
    1SOL    MW4 2464   2.206   1.101   1.143 -0.0639 -0.1446 -0.2633
    1SOL     OW 2465   2.423   1.250   1.172  0.0453 -0.0429  0.1482
    1SOL    HW2 2466   2.510   1.221   1.144 -0.6231 -1.0084 -0.9386
    1SOL    HW3 2467   2.417   1.341   1.142  0.6247 -0.0021  0.1385
    1SOL    MW4 2468   2.434   1.258   1.165  0.0336 -0.1650  0.0035
    1SOL     OW 2469   2.422   1.530   1.095 -0.6264  0.1189  0.4888
    1SOL    HW2 2470   2.364   1.594   1.136 -0.9987  0.1487 -0.0845
    1SOL    HW3 2471   2.408   1.542   1.001  0.3563  0.1730  0.3426
    1SOL    MW4 2472   2.413   1.540   1.088 -0.5460  0.1299  0.3937
    1SOL     OW 2473   2.250   1.713   1.215  0.3739 -0.3058  0.0360
    1SOL    HW2 2474   2.240   1.799   1.175  2.2540  0.2490  0.7345
    1SOL    HW3 2475   2.178   1.661   1.178  0.0602  1.1567 -1.4531
    1SOL    MW4 2476   2.239   1.717   1.205  0.5803 -0.0396 -0.0683
    1SOL     OW 2477   2.220   1.972   1.108 -0.0911  0.3376  0.0076
    1SOL    HW2 2478   2.135   2.006   1.136 -0.1466  0.4271 -0.2713
    1SOL    HW3 2479   2.212   1.962   1.013 -0.0112 -0.2809  0.0651
    1SOL    MW4 2480   2.208   1.975   1.099 -0.0880  0.2677 -0.0216
    1SOL     OW 2481   2.441   2.060   1.243 -0.0551 -0.4277  0.4461
    1SOL    HW2 2482   2.506   2.014   1.190 -2.1224 -1.6845 -1.0605
    1SOL    HW3 2483   2.357   2.037   1.204 -1.3340  2.3855  1.4385
    1SOL    MW4 2484   2.439   2.051   1.231 -0.4966 -0.2224  0.3783
    1SOL     OW 2485   2.448   2.339   1.175  0.3978  0.1699 -0.1539
    1SOL    HW2 2486   2.451   2.245   1.192  1.0392  0.3198  0.5842
    1SOL    HW3 2487   2.433   2.346   1.081  1.9569 -0.6766 -0.4832
    1SOL    MW4 2488   2.446   2.328   1.165  0.6883  0.0780 -0.0999
    1SOL     OW 2489   2.185   2.405   1.257  0.0549  0.1589  0.2341
    1SOL    HW2 2490   2.174   2.421   1.350  0.1752  0.4958  0.1929
    1SOL    HW3 2491   2.280   2.397   1.245 -0.0311 -0.9409  0.3078
    1SOL    MW4 2492   2.196   2.406   1.267  0.0594  0.0582  0.2383
    1SOL     OW 2493   2.220   2.687   1.164  0.1842 -0.1133  0.1574
    1SOL    HW2 2494   2.223   2.597   1.195 -1.2899 -1.5072 -3.4563
    1SOL    HW3 2495   2.150   2.728   1.215  0.8691 -0.9650  1.8204
    1SOL    MW4 2496   2.211   2.680   1.175  0.0803 -0.4096 -0.1001
    1SOL     OW 2497   2.447   2.825   1.242  0.2438 -0.1566  0.7527
    1SOL    HW2 2498   2.460   2.823   1.337  1.3009  0.7713  0.6360
    1SOL    HW3 2499   2.365   2.779   1.228  0.0862 -0.3035  2.1256
    1SOL    MW4 2500   2.438   2.819   1.253  0.3624 -0.0539  0.9184
    1SOL     OW 2501   2.400   3.065   1.085  0.1697 -0.1445  0.0997
    1SOL    HW2 2502   2.337   3.107   1.143  0.4642  0.1760  0.1878
    1SOL    HW3 2503   2.408   2.975   1.118 -2.3943 -1.0578 -1.6338
    1SOL    MW4 2504   2.393   3.058   1.097 -0.1297 -0.2227 -0.1174
    1SOL     OW 2505   2.233   3.184   1.254  0.1608  0.3911  0.0677
    1SOL    HW2 2506   2.265   3.271   1.230  0.2800  0.8126  1.6603
    1SOL    HW3 2507   2.155   3.171   1.200  0.3536  1.3290 -0.4482
    1SOL    MW4 2508   2.227   3.194   1.244  0.2019  0.5705  0.2097
    1SOL     OW 2509   2.275   3.442   1.135 -0.0290  0.0356  0.0355
    1SOL    HW2 2510   2.335   3.513   1.155 -0.6505  0.9716 -1.3349
    1SOL    HW3 2511   2.271   3.440   1.039 -1.5754 -0.5235  0.0987
    1SOL    MW4 2512   2.282   3.451   1.125 -0.3154  0.0851 -0.1370
    1SOL     OW 2513   2.482   3.593   1.241  0.0691 -0.2819  0.7779
    1SOL    HW2 2514   2.464   3.590   1.335  0.3765  0.1712  0.8536
    1SOL    HW3 2515   2.472   3.686   1.218 -1.9973 -0.6827 -0.0343
    1SOL    MW4 2516   2.478   3.605   1.251 -0.1628 -0.2749  0.6808
    1SOL     OW 2517   2.457   3.852   1.137 -0.6524 -0.2980 -0.2971
    1SOL    HW2 2518   2.370   3.891   1.150 -0.7300 -0.3263 -0.7306
    1SOL    HW3 2519   2.468   3.848   1.042  0.2888  0.7503 -0.2457
    1SOL    MW4 2520   2.447   3.857   1.126 -0.5386 -0.1636 -0.3475
    1SOL     OW 2521   2.216   3.980   1.139  0.3674  0.1007 -0.3488
    1SOL    HW2 2522   2.206   4.075   1.141 -0.6022  0.0136 -1.0170
    1SOL    HW3 2523   2.128   3.946   1.120  0.5559 -0.9571  0.6037
    1SOL    MW4 2524   2.203   3.988   1.137  0.2644 -0.0501 -0.3114
    1SOL     OW 2525   2.219   4.264   1.112  0.1244 -0.2196  0.0915
    1SOL    HW2 2526   2.130   4.300   1.115  0.1326 -0.2756  1.5284
    1SOL    HW3 2527   2.249   4.282   1.023  0.1492  3.3921  0.7467
    1SOL    MW4 2528   2.211   4.271   1.101  0.1292  0.2499  0.3676
    1SOL     OW 2529   2.444   4.397   1.188 -0.5414  0.0144  0.0766
    1SOL    HW2 2530   2.357   4.361   1.176 -0.2015 -0.6774 -0.3571
    1SOL    HW3 2531   2.436   4.489   1.162 -1.2832  0.1120  0.6583
    1SOL    MW4 2532   2.432   4.404   1.183 -0.5944 -0.0639  0.0961
    1SOL     OW 2533   2.908   4.635   1.093  0.3326 -0.0805 -0.1897
    1SOL    HW2 2534   2.902   4.552   1.141 -1.5475  0.2247  0.1477
    1SOL    HW3 2535   2.917   4.610   1.002  0.1996 -0.6789 -0.0409
    1SOL    MW4 2536   2.908   4.621   1.088  0.0672 -0.1192 -0.1255
    1SOL     OW 2537   2.686   0.100   1.189  0.3426  0.1170  0.0370
    1SOL    HW2 2538   2.691   0.088   1.284 -0.5268 -0.8398 -0.0308
    1SOL    HW3 2539   2.766   0.058   1.156  0.1124 -0.4986  0.2600
    1SOL    MW4 2540   2.697   0.093   1.197  0.1972 -0.0905  0.0575
    1SOL     OW 2541   2.697   0.364   1.051 -0.4416  0.2971 -0.3493
    1SOL    HW2 2542   2.676   0.284   1.098 -0.3357  0.2145 -0.4442
    1SOL    HW3 2543   2.623   0.422   1.068  0.0856  0.6473  0.7858
    1SOL    MW4 2544   2.684   0.361   1.059 -0.3583  0.3324 -0.2122
    1SOL     OW 2545   2.877   0.552   1.201 -0.2369  0.2472 -0.1309
    1SOL    HW2 2546   2.863   0.638   1.163 -0.3526 -0.1255 -0.9375
    1SOL    HW3 2547   2.808   0.497   1.164  0.0197 -0.2717  0.1391
    1SOL    MW4 2548   2.866   0.556   1.191 -0.2184  0.1296 -0.2017
    1SOL     OW 2549   2.858   0.795   1.097  0.2255 -0.2419  0.3169
    1SOL    HW2 2550   2.941   0.826   1.133  0.4258 -0.7062  0.2578
    1SOL    HW3 2551   2.791   0.841   1.148  0.5114  1.7230 -1.0184
    1SOL    MW4 2552   2.860   0.805   1.108  0.2894 -0.0439  0.1330
    1SOL     OW 2553   2.668   0.927   1.227 -0.4170  0.4901  0.4907
    1SOL    HW2 2554   2.681   1.014   1.192  1.6071 -0.2693 -0.7485
    1SOL    HW3 2555   2.595   0.891   1.177 -1.2843  1.4671  1.0379
    1SOL    MW4 2556   2.660   0.933   1.216 -0.2644  0.5188  0.3995
    1SOL     OW 2557   2.692   1.190   1.098 -0.2332  0.0592  0.7805
    1SOL    HW2 2558   2.774   1.230   1.126 -0.3642  0.7309  0.2275
    1SOL    HW3 2559   2.695   1.193   1.002 -0.6246 -0.4805  0.7459
    1SOL    MW4 2560   2.703   1.196   1.089 -0.3023  0.0765  0.7031
    1SOL     OW 2561   2.944   1.293   1.175 -0.1407 -0.2211 -0.2643
    1SOL    HW2 2562   2.932   1.306   1.269 -1.1743 -1.2584 -0.2299
    1SOL    HW3 2563   2.929   1.379   1.136  2.2799  0.6526  0.6802
    1SOL    MW4 2564   2.940   1.306   1.182  0.0422 -0.2426 -0.1352
    1SOL     OW 2565   2.868   1.575   1.066 -0.1878 -0.3235  0.5215
    1SOL    HW2 2566   2.943   1.628   1.092  0.5571 -1.4075  0.6050
    1SOL    HW3 2567   2.864   1.584   0.971 -0.3113  0.2042  0.5746
    1SOL    MW4 2568   2.877   1.583   1.057 -0.1059 -0.3970  0.5394
    1SOL     OW 2569   2.651   1.666   1.221  0.0032 -0.3571 -0.6685
    1SOL    HW2 2570   2.728   1.629   1.178  0.7208  0.7650 -0.3503
    1SOL    HW3 2571   2.580   1.605   1.199  1.3373 -2.4242  0.5661
    1SOL    MW4 2572   2.652   1.653   1.212  0.2739 -0.4817 -0.4636
    1SOL     OW 2573   2.656   1.919   1.125 -0.0204  0.1957 -0.2556
    1SOL    HW2 2574   2.748   1.944   1.138 -0.4421  1.2422  0.9030
    1SOL    HW3 2575   2.646   1.838   1.175  0.5841 -0.6011 -1.4276
    1SOL    MW4 2576   2.667   1.912   1.134  0.0038  0.2286 -0.2574
    1SOL     OW 2577   2.910   2.049   1.205 -0.3516 -0.2901 -0.3992
    1SOL    HW2 2578   2.908   2.055   1.301 -0.8579 -0.1498 -0.4179
    1SOL    HW3 2579   2.897   2.139   1.175  0.6146 -0.2046 -0.5975
    1SOL    MW4 2580   2.908   2.062   1.214 -0.2909 -0.2601 -0.4278
    1SOL     OW 2581   2.908   2.315   1.146  0.0635  0.0175 -0.3861
    1SOL    HW2 2582   2.988   2.366   1.162  0.4791 -0.6223 -0.4012
    1SOL    HW3 2583   2.837   2.379   1.154  0.5766  0.5992 -0.3977
    1SOL    MW4 2584   2.909   2.330   1.149  0.1860  0.0100 -0.3896
    1SOL     OW 2585   2.685   2.476   1.207  0.2410  0.3151  0.1384
    1SOL    HW2 2586   2.696   2.484   1.302 -0.2534  0.9100  0.1515
    1SOL    HW3 2587   2.613   2.413   1.197 -0.6000  1.2572  0.1919
    1SOL    MW4 2588   2.677   2.469   1.218  0.0651  0.5178  0.1470
    1SOL     OW 2589   2.670   2.740   1.103  0.2457  0.5104  0.1142
    1SOL    HW2 2590   2.668   2.645   1.116  0.7304  0.4861  0.0094
    1SOL    HW3 2591   2.588   2.771   1.142 -0.5385 -0.0939 -1.0491
    1SOL    MW4 2592   2.659   2.732   1.110  0.2060  0.4275 -0.0529
    1SOL     OW 2593   2.926   2.847   1.198 -0.1196  0.2144 -0.3853
    1SOL    HW2 2594   2.914   2.848   1.293 -0.7577 -0.9549 -0.4537
    1SOL    HW3 2595   2.847   2.807   1.164  0.8499 -0.9733 -1.3046
    1SOL    MW4 2596   2.914   2.842   1.206 -0.0758 -0.0966 -0.5157
    1SOL     OW 2597   2.894   3.122   1.122  0.0013  0.4161  0.1395
    1SOL    HW2 2598   2.912   3.031   1.146  0.4913  0.6898  0.8101
    1SOL    HW3 2599   2.900   3.122   1.026  0.9969 -0.0578  0.1849
    1SOL    MW4 2600   2.897   3.110   1.112  0.1974  0.3896  0.2339
    1SOL     OW 2601   2.648   3.191   1.229  0.0297 -0.2051  0.4789
    1SOL    HW2 2602   2.731   3.163   1.191 -0.1940 -2.0647  1.2710
    1SOL    HW3 2603   2.585   3.124   1.201 -1.0637  0.8194  0.4275
    1SOL    MW4 2604   2.651   3.178   1.220 -0.1440 -0.3152  0.5765
    1SOL     OW 2605   2.688   3.448   1.133  0.4788 -0.0911  0.2105
    1SOL    HW2 2606   2.671   3.360   1.165 -0.0242 -0.2425 -0.4495
    1SOL    HW3 2607   2.633   3.504   1.187 -0.3558 -0.3423 -0.3568
    1SOL    MW4 2608   2.679   3.444   1.144  0.3023 -0.1442  0.0485
    1SOL     OW 2609   2.914   3.629   1.182  0.3515 -0.2605 -0.3495
    1SOL    HW2 2610   2.988   3.575   1.153 -0.2955 -1.6739  0.5845
    1SOL    HW3 2611   2.837   3.577   1.160 -0.2090 -0.8650  2.7691
    1SOL    MW4 2612   2.914   3.615   1.175  0.1922 -0.5267  0.1853
    1SOL     OW 2613   2.907   3.866   1.054 -0.0105 -0.3737 -0.3032
    1SOL    HW2 2614   2.975   3.915   1.099 -0.0601 -0.2335 -0.3802
    1SOL    HW3 2615   2.902   3.783   1.101 -0.6911  0.1245  0.5230
    1SOL    MW4 2616   2.915   3.862   1.066 -0.1068 -0.2894 -0.2044
    1SOL     OW 2617   2.698   3.973   1.201  0.4706  0.1123 -0.2879
    1SOL    HW2 2618   2.772   3.928   1.159  0.2892 -2.4656  2.0395
    1SOL    HW3 2619   2.621   3.928   1.168  0.3209 -1.9311  2.6226
    1SOL    MW4 2620   2.698   3.961   1.191  0.4268 -0.4976  0.4032
    1SOL     OW 2621   2.674   4.220   1.074 -0.1380 -0.2654  0.0590
    1SOL    HW2 2622   2.679   4.137   1.122  0.5777  0.3402  1.0621
    1SOL    HW3 2623   2.610   4.272   1.124 -1.7993 -0.7898 -1.4835
    1SOL    MW4 2624   2.666   4.216   1.087 -0.2627 -0.2546 -0.0123
    1SOL     OW 2625   2.872   4.382   1.226 -0.2536 -0.3249 -0.4789
    1SOL    HW2 2626   2.950   4.335   1.197 -0.2166 -1.5548  1.5123
    1SOL    HW3 2627   2.799   4.339   1.180  0.0231 -0.6564 -0.6062
    1SOL    MW4 2628   2.872   4.370   1.216 -0.2122 -0.5312 -0.2332
    1SOL     OW 2629   3.336   4.642   1.152 -0.1615 -0.4532  0.6325
    1SOL    HW2 2630   3.418   4.687   1.170  0.3266 -0.8328 -0.5522
    1SOL    HW3 2631   3.268   4.701   1.183  0.4368  1.4212 -1.5198
    1SOL    MW4 2632   3.338   4.656   1.158 -0.0184 -0.2561  0.1923
    1SOL     OW 2633   3.124   0.124   1.215 -0.7956 -0.2002  0.6294
    1SOL    HW2 2634   3.129   0.113   1.310 -0.8515 -1.0013  0.5428
    1SOL    HW3 2635   3.052   0.067   1.188 -0.4929 -0.3100  0.0541
    1SOL    MW4 2636   3.115   0.115   1.224 -0.7632 -0.3204  0.5419
    1SOL     OW 2637   3.129   0.403   1.155  0.1608 -0.3948  0.0645
    1SOL    HW2 2638   3.111   0.311   1.172 -1.2108 -0.4189 -1.4365
    1SOL    HW3 2639   3.053   0.450   1.191 -0.6009 -0.1066 -1.8742
    1SOL    MW4 2640   3.117   0.397   1.162 -0.1206 -0.3600 -0.3892
    1SOL     OW 2641   3.364   0.522   1.214 -0.1401 -0.1720  0.5516
    1SOL    HW2 2642   3.342   0.612   1.189  1.3219  0.2772  0.8384
    1SOL    HW3 2643   3.290   0.470   1.184 -0.6110  1.0183 -0.3888
    1SOL    MW4 2644   3.352   0.527   1.206 -0.0095  0.0442  0.4655
    1SOL     OW 2645   3.321   0.801   1.103 -0.1723 -0.5766 -0.0129
    1SOL    HW2 2646   3.250   0.861   1.125  0.6103  0.8011 -1.1904
    1SOL    HW3 2647   3.324   0.800   1.008  1.3400 -0.6775  0.0189
    1SOL    MW4 2648   3.312   0.809   1.094  0.1307 -0.4082 -0.1639
    1SOL     OW 2649   3.076   0.934   1.208 -0.2081 -0.2272  0.3228
    1SOL    HW2 2650   3.100   0.931   1.301 -1.1627  0.3428  0.5992
    1SOL    HW3 2651   3.116   1.015   1.176  0.7083 -0.7785  0.0629
    1SOL    MW4 2652   3.084   0.945   1.216 -0.2131 -0.2248  0.3250
    1SOL     OW 2653   3.188   1.170   1.089  0.3958  0.0840  0.5007
    1SOL    HW2 2654   3.252   1.228   1.129 -0.9597  0.4169  2.2366
    1SOL    HW3 2655   3.103   1.205   1.116 -0.5362 -0.3833 -1.7119
    1SOL    MW4 2656   3.185   1.182   1.098  0.0942  0.0663  0.4379
    1SOL     OW 2657   3.399   1.324   1.198 -0.2438 -0.1979  0.0866
    1SOL    HW2 2658   3.387   1.331   1.293  1.6047 -0.5373  0.3634
    1SOL    HW3 2659   3.406   1.414   1.168  0.0089 -0.1149  0.3933
    1SOL    MW4 2660   3.399   1.337   1.207  0.0334 -0.2317  0.1634
    1SOL     OW 2661   3.359   1.587   1.132  0.6317  0.4293 -0.1261
    1SOL    HW2 2662   3.419   1.644   1.181  0.0821  0.0536  0.9843
    1SOL    HW3 2663   3.272   1.612   1.163  0.4570 -2.1551  1.6313
    1SOL    MW4 2664   3.356   1.598   1.143  0.5362  0.0386  0.2522
    1SOL     OW 2665   3.106   1.686   1.199 -0.7047 -0.3917 -0.2163
    1SOL    HW2 2666   3.101   1.709   1.292 -0.0951  1.1934 -0.5737
    1SOL    HW3 2667   3.115   1.769   1.153 -2.6469 -1.0041 -1.8362
    1SOL    MW4 2668   3.106   1.700   1.205 -0.8805 -0.2633 -0.4771
    1SOL     OW 2669   3.113   1.944   1.077  0.4354 -0.4541 -0.0021
    1SOL    HW2 2670   3.184   1.986   1.125 -0.6071  1.1546  0.2031
    1SOL    HW3 2671   3.033   1.979   1.117 -0.4597 -1.4662 -0.8710
    1SOL    MW4 2672   3.112   1.954   1.088  0.1798 -0.3755 -0.0896
    1SOL     OW 2673   3.354   2.049   1.192  0.2372 -0.1714 -0.0945
    1SOL    HW2 2674   3.427   2.021   1.138 -0.0414 -1.8293  0.3597
    1SOL    HW3 2675   3.338   2.139   1.166  1.5068 -0.2597 -1.2183
    1SOL    MW4 2676   3.361   2.057   1.182  0.3684 -0.4020 -0.1827
    1SOL     OW 2677   3.353   2.320   1.065  0.7889  0.0498  0.7901
    1SOL    HW2 2678   3.428   2.355   1.112  0.9153  0.5323  0.2322
    1SOL    HW3 2679   3.278   2.372   1.095  0.7695 -0.0390  0.8991
    1SOL    MW4 2680   3.353   2.331   1.075  0.8030  0.1018  0.7309
    1SOL     OW 2681   3.137   2.478   1.200  0.3573  0.0927 -0.2402
    1SOL    HW2 2682   3.152   2.465   1.293 -1.2013 -0.6512 -0.0761
    1SOL    HW3 2683   3.144   2.572   1.187  0.3051  0.2257  0.6765
    1SOL    MW4 2684   3.140   2.489   1.210  0.1447  0.0119 -0.0975
    1SOL     OW 2685   3.168   2.740   1.119 -0.3419  0.0138 -0.2937
    1SOL    HW2 2686   3.083   2.770   1.152 -0.5922  0.6103 -1.4406
    1SOL    HW3 2687   3.159   2.744   1.023  0.7458 -0.5783 -0.4278
    1SOL    MW4 2688   3.155   2.744   1.111 -0.2315  0.0143 -0.4627
    1SOL     OW 2689   3.421   2.847   1.186 -0.3623  0.0584  0.0101
    1SOL    HW2 2690   3.401   2.940   1.186 -1.3560 -0.1478  0.3213
    1SOL    HW3 2691   3.344   2.806   1.145  0.2071 -0.5910 -0.4221
    1SOL    MW4 2692   3.408   2.854   1.181 -0.4182 -0.0546 -0.0058
    1SOL     OW 2693   3.364   3.105   1.129 -0.5445 -0.4369 -0.2742
    1SOL    HW2 2694   3.436   3.159   1.162  0.2246 -0.4029 -1.9529
    1SOL    HW3 2695   3.285   3.143   1.169  0.3562 -0.3960  1.4714
    1SOL    MW4 2696   3.363   3.117   1.138 -0.3238 -0.4268 -0.2652
    1SOL     OW 2697   3.137   3.231   1.222  0.3747  0.3430  0.1020
    1SOL    HW2 2698   3.151   3.313   1.174  1.1686  0.1149 -0.0596
    1SOL    HW3 2699   3.056   3.195   1.185 -0.4370  1.4685  0.7588
    1SOL    MW4 2700   3.128   3.237   1.211  0.3724  0.4611  0.1673
    1SOL     OW 2701   3.127   3.489   1.107 -0.5348 -0.0643 -0.0974
    1SOL    HW2 2702   3.204   3.539   1.136 -0.1736 -0.5287 -0.2419
    1SOL    HW3 2703   3.139   3.479   1.012 -1.3462  0.8286 -0.2913
    1SOL    MW4 2704   3.139   3.494   1.098 -0.5941 -0.0076 -0.1421
    1SOL     OW 2705   3.362   3.596   1.184  0.0488 -0.0666 -0.0671
    1SOL    HW2 2706   3.375   3.607   1.279  0.1802  0.4848 -0.1436
    1SOL    HW3 2707   3.447   3.565   1.152  0.5620  1.4560 -0.2524
    1SOL    MW4 2708   3.375   3.594   1.193  0.1340  0.2069 -0.1017
    1SOL     OW 2709   3.352   3.858   1.104 -0.2618  0.7884  0.4791
    1SOL    HW2 2710   3.278   3.893   1.154 -0.2649 -1.3606  2.0199
    1SOL    HW3 2711   3.358   3.766   1.130  1.4244  0.3001 -1.4811
    1SOL    MW4 2712   3.343   3.851   1.114 -0.0396  0.4404  0.4237
    1SOL     OW 2713   3.103   4.001   1.181 -0.0176 -0.4161  0.1049
    1SOL    HW2 2714   3.098   3.990   1.276  0.2866  0.8537  0.2722
    1SOL    HW3 2715   3.119   4.094   1.168 -1.0619 -0.4112 -1.2320
    1SOL    MW4 2716   3.104   4.012   1.192 -0.1156 -0.2480 -0.0494
    1SOL     OW 2717   3.111   4.301   1.149  0.1201  0.1609 -0.2284
    1SOL    HW2 2718   3.191   4.321   1.198 -1.1574  0.5453  1.7588
    1SOL    HW3 2719   3.139   4.297   1.058  2.6185 -0.8261  0.5335
    1SOL    MW4 2720   3.125   4.303   1.144  0.2813  0.0815  0.1342
    1SOL     OW 2721   3.361   4.371   1.241 -0.2806  0.0293  0.0744
    1SOL    HW2 2722   3.445   4.337   1.210  0.8121  0.1258  2.7913
    1SOL    HW3 2723   3.365   4.465   1.224  0.8759  0.2937  1.7183
    1SOL    MW4 2724   3.373   4.379   1.235  0.0160  0.0768  0.6498
    1SOL     OW 2725   3.799   4.643   1.128  0.2769  0.1787 -0.0056
    1SOL    HW2 2726   3.798   4.560   1.177 -0.3630  0.4282  0.4108
    1SOL    HW3 2727   3.795   4.617   1.036 -1.0478 -0.2338  0.1536
    1SOL    MW4 2728   3.798   4.628   1.122  0.0179  0.1569  0.0703
    1SOL     OW 2729   3.568   0.103   1.213  0.2851 -0.3397 -0.1547
    1SOL    HW2 2730   3.577   0.196   1.194  1.5538 -0.4275 -0.0022
    1SOL    HW3 2731   3.653   0.065   1.192 -0.6791 -1.7387 -1.6891
    1SOL    MW4 2732   3.580   0.110   1.208  0.3252 -0.5359 -0.3372
    1SOL     OW 2733   3.577   0.378   1.147  0.0047 -0.4211 -0.1169
    1SOL    HW2 2734   3.648   0.419   1.196  1.0289 -3.4394  1.0506
    1SOL    HW3 2735   3.499   0.428   1.170  1.1136  0.5167  1.6662
    1SOL    MW4 2736   3.576   0.390   1.156  0.2863 -0.6956  0.2723
    1SOL     OW 2737   3.820   0.495   1.220 -0.2850 -0.2562 -0.4786
    1SOL    HW2 2738   3.896   0.452   1.182  0.8898 -0.3144  1.8356
    1SOL    HW3 2739   3.811   0.577   1.171  0.4474 -0.8680 -1.6444
    1SOL    MW4 2740   3.829   0.500   1.209 -0.0334 -0.3446 -0.3271
    1SOL     OW 2741   3.793   0.757   1.104 -0.2139  0.5098  0.4699
    1SOL    HW2 2742   3.873   0.782   1.151  0.6208  1.2661 -1.2868
    1SOL    HW3 2743   3.724   0.811   1.144  0.5776  1.5318  0.4875
    1SOL    MW4 2744   3.794   0.768   1.115  0.0007  0.7444  0.2404
    1SOL     OW 2745   3.581   0.876   1.216 -0.2395 -0.0510 -0.1320
    1SOL    HW2 2746   3.584   0.971   1.205  1.0690 -0.0402  0.2003
    1SOL    HW3 2747   3.496   0.850   1.180 -0.7689  1.2843  0.1351
    1SOL    MW4 2748   3.570   0.885   1.210 -0.1366  0.1265 -0.0528
    1SOL     OW 2749   3.626   1.154   1.155 -0.1028 -0.5421 -0.1488
    1SOL    HW2 2750   3.698   1.210   1.181  0.2633 -0.8083 -0.5760
    1SOL    HW3 2751   3.547   1.205   1.172  0.2149 -0.0367 -0.2092
    1SOL    MW4 2752   3.625   1.168   1.161 -0.0122 -0.5105 -0.2131
    1SOL     OW 2753   3.863   1.299   1.226 -0.0509  0.2619 -0.2523
    1SOL    HW2 2754   3.868   1.305   1.321 -0.1109  0.3283 -0.2528
    1SOL    HW3 2755   3.841   1.388   1.198  0.4057  0.3409 -0.3584
    1SOL    MW4 2756   3.861   1.312   1.235  0.0014  0.2812 -0.2664
    1SOL     OW 2757   3.801   1.554   1.135  0.3107  0.3643  0.5528
    1SOL    HW2 2758   3.880   1.607   1.146  0.6016  0.0312  0.0880
    1SOL    HW3 2759   3.798   1.535   1.041 -2.3632  3.5637 -0.0958
    1SOL    MW4 2760   3.811   1.558   1.124 -0.0038  0.7424  0.4059
    1SOL     OW 2761   3.598   1.718   1.246  0.1631  0.0307  0.1292
    1SOL    HW2 2762   3.594   1.792   1.186 -0.3877 -1.5711 -1.8889
    1SOL    HW3 2763   3.666   1.661   1.210 -0.3092 -1.0440  0.8917
    1SOL    MW4 2764   3.606   1.720   1.233  0.0281 -0.3223 -0.0365
    1SOL     OW 2765   3.590   1.969   1.083 -0.1283  0.0007  0.3713
    1SOL    HW2 2766   3.666   1.998   1.133  1.2998 -1.5007 -0.8768
    1SOL    HW3 2767   3.623   1.960   0.994 -1.9530 -0.0053 -0.3066
    1SOL    MW4 2768   3.605   1.972   1.078 -0.1802 -0.1981  0.1171
    1SOL     OW 2769   3.817   2.021   1.235  0.2514 -0.2634 -0.1944
    1SOL    HW2 2770   3.842   2.042   1.326 -0.5040 -1.2451  0.2438
    1SOL    HW3 2771   3.899   1.992   1.195  0.7094  0.7225  0.0080
    1SOL    MW4 2772   3.831   2.020   1.242  0.2120 -0.2630 -0.1098
    1SOL     OW 2773   3.807   2.293   1.089  0.3922  0.2661  0.3315
    1SOL    HW2 2774   3.887   2.327   1.128 -0.2917  0.5622  1.5045
    1SOL    HW3 2775   3.794   2.208   1.131 -0.2232  0.4849  0.6013
    1SOL    MW4 2776   3.816   2.286   1.100  0.2208  0.3340  0.5219
    1SOL     OW 2777   3.595   2.444   1.190 -0.1595  0.0269  0.3279
    1SOL    HW2 2778   3.610   2.436   1.284  0.3830 -0.2269  0.2251
    1SOL    HW3 2779   3.660   2.385   1.151 -0.8790 -0.4344 -0.1734
    1SOL    MW4 2780   3.606   2.435   1.197 -0.1826 -0.0677  0.2482
    1SOL     OW 2781   3.653   2.705   1.108 -0.1586 -0.1520 -0.3824
    1SOL    HW2 2782   3.645   2.620   1.151 -0.6253  0.0683 -0.0213
    1SOL    HW3 2783   3.581   2.756   1.145 -0.7030 -0.0366 -1.6033
    1SOL    MW4 2784   3.642   2.700   1.119 -0.2918 -0.1078 -0.4958
    1SOL     OW 2785   3.837   2.882   1.248 -0.1381  0.1077  0.5457
    1SOL    HW2 2786   3.805   2.878   1.338  1.6445 -0.4887  1.1788
    1SOL    HW3 2787   3.778   2.824   1.199  0.0837 -1.1523  1.7271
    1SOL    MW4 2788   3.825   2.873   1.254  0.1264 -0.1373  0.7849
    1SOL     OW 2789   3.757   3.091   1.078 -0.2661 -0.7602  0.4119
    1SOL    HW2 2790   3.789   3.015   1.127 -0.5154 -1.0166  0.1793
    1SOL    HW3 2791   3.780   3.072   0.987  2.9198  1.1087  0.7745
    1SOL    MW4 2792   3.764   3.078   1.072  0.1214 -0.5472  0.4289
    1SOL     OW 2793   3.578   3.255   1.229 -0.0864 -0.2375  0.3181
    1SOL    HW2 2794   3.605   3.340   1.193 -0.1221 -0.1770  0.4353
    1SOL    HW3 2795   3.647   3.195   1.201  0.4540  0.0194  1.0664
    1SOL    MW4 2796   3.591   3.259   1.221 -0.0198 -0.1960  0.4321
    1SOL     OW 2797   3.625   3.510   1.106 -0.8513  0.3775 -0.1545
    1SOL    HW2 2798   3.703   3.547   1.147 -0.2155 -1.8929  0.7682
    1SOL    HW3 2799   3.641   3.518   1.012 -0.5398  1.9871  0.0162
    1SOL    MW4 2800   3.638   3.516   1.099 -0.7262  0.2904 -0.0104
    1SOL     OW 2801   3.854   3.614   1.217  0.4122  0.2231  0.0876
    1SOL    HW2 2802   3.841   3.609   1.312 -1.1592 -0.1066 -0.1280
    1SOL    HW3 2803   3.851   3.708   1.197 -1.0916  0.1870  0.1299
    1SOL    MW4 2804   3.852   3.626   1.227  0.0067  0.1750  0.0647
    1SOL     OW 2805   3.841   3.890   1.151 -0.0120  0.3103  0.1383
    1SOL    HW2 2806   3.759   3.933   1.176 -0.0905  0.1791  0.1032
    1SOL    HW3 2807   3.843   3.895   1.055  0.1920  0.6309  0.1564
    1SOL    MW4 2808   3.831   3.897   1.141  0.0048  0.3352  0.1361
    1SOL     OW 2809   3.602   3.986   1.219  0.4077  0.4152 -0.3867
    1SOL    HW2 2810   3.601   3.985   1.315  0.9436 -0.5052 -0.3863
    1SOL    HW3 2811   3.521   3.943   1.193  0.4649  0.2799 -0.3424
    1SOL    MW4 2812   3.591   3.980   1.228  0.4861  0.2759 -0.3806
    1SOL     OW 2813   3.594   4.256   1.152 -0.2177  0.1384  0.2725
    1SOL    HW2 2814   3.591   4.170   1.193 -1.5659  0.8300  1.6633
    1SOL    HW3 2815   3.575   4.240   1.059 -0.0360 -1.0957  0.4510
    1SOL    MW4 2816   3.591   4.243   1.145 -0.3717  0.0668  0.4795
    1SOL     OW 2817   3.820   4.392   1.262  0.1874  0.8756  0.3154
    1SOL    HW2 2818   3.808   4.374   1.355  0.5798 -0.7893  0.0621
    1SOL    HW3 2819   3.758   4.333   1.218  0.8568  0.7786 -0.5185
    1SOL    MW4 2820   3.810   4.382   1.268  0.3273  0.6428  0.1719
    1SOL     OW 2821   4.265   4.638   1.132  0.0854  0.5474 -0.1581
    1SOL    HW2 2822   4.255   4.548   1.164 -0.2573  1.4245  2.2312
    1SOL    HW3 2823   4.183   4.681   1.156  0.0397  1.3984 -1.7588
    1SOL    MW4 2824   4.253   4.632   1.139  0.0348  0.7763 -0.0541
    1SOL     OW 2825   4.049   0.117   1.214 -0.2035  0.4571  0.0697
    1SOL    HW2 2826   4.045   0.123   1.310  0.5012 -1.4285  0.2473
    1SOL    HW3 2827   3.969   0.070   1.189 -1.0690  2.1412 -0.4142
    1SOL    MW4 2828   4.038   0.111   1.224 -0.2251  0.4305  0.0294
    1SOL     OW 2829   4.047   0.398   1.108  0.2083 -0.1791  0.4938
    1SOL    HW2 2830   4.048   0.307   1.140 -0.7649  0.2400  1.7686
    1SOL    HW3 2831   4.029   0.390   1.015  0.0615 -1.3007  0.6065
    1SOL    MW4 2832   4.045   0.385   1.100  0.0596 -0.2717  0.6766
    1SOL     OW 2833   4.275   0.503   1.219  0.0323 -0.2977 -0.0557
    1SOL    HW2 2834   4.263   0.509   1.314  0.5837  1.0611 -0.0562
    1SOL    HW3 2835   4.193   0.465   1.187 -0.6422  0.3866  0.8419
    1SOL    MW4 2836   4.263   0.499   1.227  0.0162 -0.0281  0.0626
    1SOL     OW 2837   4.246   0.781   1.142 -0.0567 -0.1039 -0.0300
    1SOL    HW2 2838   4.233   0.697   1.185  0.5354 -0.3396 -0.3020
    1SOL    HW3 2839   4.248   0.761   1.048 -1.8015  0.4687 -0.2175
    1SOL    MW4 2840   4.245   0.767   1.135 -0.2089 -0.0595 -0.0908
    1SOL     OW 2841   4.008   0.868   1.224  0.4895 -0.6026 -0.0951
    1SOL    HW2 2842   4.017   0.886   1.318  0.4698  0.0330 -0.2117
    1SOL    HW3 2843   4.095   0.843   1.195  0.5031 -0.7647  0.0847
    1SOL    MW4 2844   4.020   0.867   1.233  0.4888 -0.5401 -0.0868
    1SOL     OW 2845   4.037   1.126   1.114  0.5335  0.2960 -0.3902
    1SOL    HW2 2846   4.011   1.046   1.160  1.6900 -0.0136 -0.2767
    1SOL    HW3 2847   3.983   1.195   1.154  0.8046 -0.1341  0.7340
    1SOL    MW4 2848   4.026   1.125   1.125  0.7219  0.1985 -0.2271
    1SOL     OW 2849   4.262   1.268   1.208  0.1162  0.2623 -0.5684
    1SOL    HW2 2850   4.263   1.277   1.303 -1.2018  0.8007 -0.5925
    1SOL    HW3 2851   4.184   1.218   1.189  0.2689  0.3221 -1.3854
    1SOL    MW4 2852   4.252   1.263   1.218 -0.0372  0.3412 -0.6791
    1SOL     OW 2853   4.237   1.528   1.108 -0.0129 -0.2096 -0.4137
    1SOL    HW2 2854   4.240   1.440   1.146 -1.5508  0.3190  1.0203
    1SOL    HW3 2855   4.317   1.570   1.137 -1.2126  0.2120  2.3890
    1SOL    MW4 2856   4.248   1.522   1.117 -0.3743 -0.0843  0.1452
    1SOL     OW 2857   4.026   1.666   1.220  0.4832 -0.0050 -0.0739
    1SOL    HW2 2858   4.032   1.660   1.315  0.0417 -0.3773 -0.0674
    1SOL    HW3 2859   4.101   1.615   1.189  0.7863  0.3475  0.0782
    1SOL    MW4 2860   4.037   1.658   1.228  0.4654 -0.0076 -0.0530
    1SOL     OW 2861   4.055   1.922   1.142  0.3081  0.1429 -0.3084
    1SOL    HW2 2862   4.042   1.830   1.161 -0.6322  0.0813 -1.1712
    1SOL    HW3 2863   4.064   1.925   1.046  1.6853  0.7892 -0.1742
    1SOL    MW4 2864   4.055   1.911   1.132  0.3657  0.2201 -0.4044
    1SOL     OW 2865   4.305   2.022   1.258 -0.5343 -0.5826  0.1590
    1SOL    HW2 2866   4.307   2.117   1.247  0.9276 -0.5109  0.9134
    1SOL    HW3 2867   4.218   1.996   1.227 -1.3967  1.1229  1.0656
    1SOL    MW4 2868   4.294   2.031   1.252 -0.4549 -0.3481  0.3781
    1SOL     OW 2869   4.299   2.298   1.164  0.2656 -0.0017  0.2867
    1SOL    HW2 2870   4.213   2.336   1.184 -0.9990 -2.5560  0.0264
    1SOL    HW3 2871   4.292   2.273   1.071  2.2416  2.0754 -0.4669
    1SOL    MW4 2872   4.287   2.299   1.154  0.3595 -0.0646  0.1529
    1SOL     OW 2873   4.019   2.422   1.226  0.9067  0.2927  0.1985
    1SOL    HW2 2874   4.028   2.405   1.320  0.1253  1.1242  0.4335
    1SOL    HW3 2875   4.038   2.516   1.218 -0.8401  0.6170 -0.2212
    1SOL    MW4 2876   4.023   2.432   1.237  0.5732  0.4454  0.1740
    1SOL     OW 2877   4.051   2.689   1.202 -0.1554 -0.1417 -0.3250
    1SOL    HW2 2878   3.990   2.748   1.246 -0.0721 -0.0806 -0.2916
    1SOL    HW3 2879   4.032   2.700   1.109  1.4421  1.6897 -0.4645
    1SOL    MW4 2880   4.040   2.698   1.195  0.0663  0.1080 -0.3390
    1SOL     OW 2881   4.332   2.803   1.239  0.3262  0.4065 -0.2727
    1SOL    HW2 2882   4.318   2.889   1.199  1.2472  0.0160 -1.4366
    1SOL    HW3 2883   4.245   2.762   1.238 -0.4693  1.9347  1.7860
    1SOL    MW4 2884   4.318   2.809   1.234  0.3428  0.5565 -0.1546
    1SOL     OW 2885   4.242   3.051   1.134 -0.4534  0.1738 -0.4367
    1SOL    HW2 2886   4.157   3.089   1.154 -0.9309 -0.3655 -1.4277
    1SOL    HW3 2887   4.263   3.083   1.046  0.3230  0.2355 -0.2356
    1SOL    MW4 2888   4.234   3.060   1.125 -0.4139  0.1106 -0.5409
    1SOL     OW 2889   4.009   3.208   1.190  0.0911 -0.3289  0.3734
    1SOL    HW2 2890   4.020   3.216   1.285 -0.7236  0.7762  0.3692
    1SOL    HW3 2891   3.923   3.168   1.179  0.3577 -0.8448  0.0947
    1SOL    MW4 2892   3.999   3.204   1.201  0.0184 -0.2513  0.3363
    1SOL     OW 2893   4.050   3.466   1.096 -0.6466 -0.2711  0.4724
    1SOL    HW2 2894   4.036   3.373   1.116 -0.9646 -0.0384  1.3808
    1SOL    HW3 2895   3.983   3.511   1.146 -0.4643  0.4542  0.0658
    1SOL    MW4 2896   4.040   3.460   1.106 -0.6647 -0.1447  0.5386
    1SOL     OW 2897   4.270   3.599   1.215 -0.1165 -0.2629  0.2033
    1SOL    HW2 2898   4.202   3.538   1.187 -0.9264  1.5815 -2.0129
    1SOL    HW3 2899   4.352   3.559   1.186 -0.3876 -1.6842  1.3723
    1SOL    MW4 2900   4.272   3.586   1.207 -0.2594 -0.2067  0.0651
    1SOL     OW 2901   4.256   3.871   1.136 -0.2007  0.0875 -0.3353
    1SOL    HW2 2902   4.196   3.913   1.198  0.9557  0.8901  0.2574
    1SOL    HW3 2903   4.263   3.781   1.167 -0.9289  0.0422 -0.2885
    1SOL    MW4 2904   4.249   3.864   1.148 -0.1445  0.1876 -0.2508
    1SOL     OW 2905   4.060   4.003   1.272 -0.4347 -0.2610  0.0259
    1SOL    HW2 2906   4.088   4.088   1.239  0.3190 -0.5733 -0.1602
    1SOL    HW3 2907   3.980   3.983   1.224  0.3201 -0.4333 -1.1881
    1SOL    MW4 2908   4.054   4.011   1.261 -0.2365 -0.3252 -0.1587
    1SOL     OW 2909   4.058   4.246   1.159  0.0592 -0.2138  0.5120
    1SOL    HW2 2910   3.992   4.308   1.190  1.6053  1.8575 -0.2469
    1SOL    HW3 2911   4.048   4.246   1.064  1.3515  0.3410  0.3743
    1SOL    MW4 2912   4.048   4.254   1.151  0.4339  0.1321  0.3936
    1SOL     OW 2913   4.268   4.386   1.252  0.6279 -0.0752 -0.0395
    1SOL    HW2 2914   4.194   4.332   1.225  0.3437  0.5195 -0.4652
    1SOL    HW3 2915   4.344   4.346   1.209  0.5555 -0.6612  0.3648
    1SOL    MW4 2916   4.269   4.373   1.243  0.5813 -0.0739 -0.0422
    1SOL     OW 2917   0.239   4.599   1.630  0.6765 -0.3815  0.1226
    1SOL    HW2 2918   0.315   4.646   1.595  1.0627 -0.5123  0.7699
    1SOL    HW3 2919   0.163   4.644   1.592  1.0861 -0.5974 -0.9608
    1SOL    MW4 2920   0.239   4.611   1.621  0.7816 -0.4272  0.0650
    1SOL     OW 2921   0.024   0.080   1.541 -0.4787 -0.1176  0.1258
    1SOL    HW2 2922  -0.068   0.062   1.559 -0.6207 -0.9583 -1.3196
    1SOL    HW3 2923   0.029   0.085   1.445  0.7724  1.0576  0.2420
    1SOL    MW4 2924   0.013   0.078   1.531 -0.3324 -0.0735 -0.0495
    1SOL     OW 2925   4.480   0.347   1.593 -0.4811 -0.3787 -0.3057
    1SOL    HW2 2926   4.473   0.353   1.688 -1.8719  0.8011 -0.4611
    1SOL    HW3 2927   4.487   0.253   1.576  1.1299 -0.5233  1.0306
    1SOL    MW4 2928   4.480   0.336   1.603 -0.4525 -0.2421 -0.1500
    1SOL     OW 2929   0.215   0.477   1.473 -0.0282 -0.0365  0.4369
    1SOL    HW2 2930   0.144   0.421   1.506  1.0824 -1.6603  0.1436
    1SOL    HW3 2931   0.206   0.473   1.378  0.2096  0.0690  0.4102
    1SOL    MW4 2932   0.204   0.469   1.465  0.1497 -0.2368  0.3945
    1SOL     OW 2933   0.195   0.733   1.623 -0.0084 -0.0836  0.2426
    1SOL    HW2 2934   0.260   0.783   1.573 -1.1492  0.6973 -0.4794
    1SOL    HW3 2935   0.198   0.645   1.585 -0.1815  0.2498 -0.5301
    1SOL    MW4 2936   0.204   0.728   1.612 -0.1818  0.0634  0.0454
    1SOL     OW 2937   4.481   0.869   1.500  0.1350  0.2538  0.3067
    1SOL    HW2 2938   4.487   0.955   1.540  1.4245 -0.1250  0.9514
    1SOL    HW3 2939   4.548   0.817   1.545  1.2493 -0.3289 -1.9472
    1SOL    MW4 2940   4.491   0.873   1.511  0.4520  0.1270  0.0943
    1SOL     OW 2941   4.490   1.106   1.635  0.4093 -0.0515  0.0611
    1SOL    HW2 2942   4.478   1.102   1.730  0.6254 -1.3777  0.0380
    1SOL    HW3 2943   4.577   1.142   1.623  0.0218  1.0113  0.3449
    1SOL    MW4 2944   4.500   1.110   1.646  0.3867 -0.0862  0.0955
    1SOL     OW 2945   0.210   1.281   1.516 -0.5017 -0.1696 -0.5183
    1SOL    HW2 2946   0.216   1.371   1.546  2.3921 -0.9487  1.4946
    1SOL    HW3 2947   0.224   1.285   1.421 -1.1410  1.5213 -0.5474
    1SOL    MW4 2948   0.212   1.293   1.507 -0.2043 -0.0494 -0.2567
    1SOL     OW 2949   0.247   1.541   1.600  0.1210  0.1323  0.1425
    1SOL    HW2 2950   0.231   1.540   1.694  0.4798 -0.3031  0.2000
    1SOL    HW3 2951   0.173   1.589   1.564 -0.0606  0.2312  0.6390
    1SOL    MW4 2952   0.235   1.547   1.608  0.1444  0.0880  0.2156
    1SOL     OW 2953   4.488   1.625   1.472 -0.1812  0.1960  0.1380
    1SOL    HW2 2954   4.492   1.709   1.517  1.2596 -0.3858  1.1443
    1SOL    HW3 2955   4.465   1.647   1.381 -0.8163  1.5737  0.6148
    1SOL    MW4 2956   4.485   1.639   1.466 -0.0753  0.3010  0.3335
    1SOL     OW 2957   4.486   1.869   1.630 -0.1096 -0.3013  0.4417
    1SOL    HW2 2958   4.486   1.905   1.719 -0.7119 -1.5741  0.9765
    1SOL    HW3 2959   4.418   1.918   1.585 -0.4588 -0.2873  0.9697
    1SOL    MW4 2960   4.477   1.880   1.636 -0.2356 -0.4675  0.5819
    1SOL     OW 2961   0.176   2.073   1.515  0.5803 -0.1304 -0.2972
    1SOL    HW2 2962   0.106   2.008   1.527 -1.4731  2.1690  0.4699
    1SOL    HW3 2963   0.180   2.088   1.421 -0.9629  0.8014 -0.2178
    1SOL    MW4 2964   0.168   2.066   1.504  0.1058  0.2956 -0.1856
    1SOL     OW 2965   0.218   2.305   1.648  0.2968  0.1832  0.7252
    1SOL    HW2 2966   0.243   2.290   1.739  0.2700 -0.2715  0.6589
    1SOL    HW3 2967   0.205   2.217   1.612 -1.0680  0.4059  0.6628
    1SOL    MW4 2968   0.219   2.291   1.655  0.1132  0.1526  0.7082
    1SOL     OW 2969   0.013   2.468   1.501  0.1660 -0.5827 -0.0094
    1SOL    HW2 2970  -0.065   2.421   1.529  0.7086 -1.8314 -0.5486
    1SOL    HW3 2971   0.084   2.432   1.554  0.3733  0.6583  0.5944
    1SOL    MW4 2972   0.012   2.457   1.511  0.2649 -0.5836 -0.0011
    1SOL     OW 2973   0.016   2.727   1.606  0.1016 -0.1529 -0.4464
    1SOL    HW2 2974  -0.067   2.770   1.585 -0.1023 -0.1605  0.3493
    1SOL    HW3 2975   0.004   2.636   1.578 -0.2364 -0.2062 -0.1315
    1SOL    MW4 2976   0.003   2.721   1.599  0.0301 -0.1609 -0.2999
    1SOL     OW 2977   0.253   2.809   1.499 -0.2958 -0.2223  0.0397
    1SOL    HW2 2978   0.318   2.771   1.558 -0.2374  0.8109  0.6664
    1SOL    HW3 2979   0.169   2.780   1.533 -0.2447  0.0576  0.4059
    1SOL    MW4 2980   0.251   2.801   1.511 -0.2814 -0.0494  0.1707
    1SOL     OW 2981   0.223   3.059   1.622  0.0788  0.0888  0.1482
    1SOL    HW2 2982   0.153   3.093   1.566  0.4528 -0.7651 -0.8589
    1SOL    HW3 2983   0.244   2.973   1.585  1.2231  0.0631  0.8220
    1SOL    MW4 2984   0.217   3.052   1.610  0.2791 -0.0269  0.1042
    1SOL     OW 2985   0.030   3.195   1.488  0.0207  0.2227  0.3813
    1SOL    HW2 2986   0.030   3.288   1.510  0.4279  0.7223 -1.6229
    1SOL    HW3 2987   0.008   3.192   1.395  1.0577 -1.6050  0.1643
    1SOL    MW4 2988   0.027   3.207   1.479  0.2113  0.0474  0.0881
    1SOL     OW 2989   4.489   3.477   1.594  0.2027  0.3165  0.0280
    1SOL    HW2 2990   4.511   3.478   1.687  0.5970  0.5121 -0.0651
    1SOL    HW3 2991   4.414   3.536   1.587  0.2997  0.4622  0.1921
    1SOL    MW4 2992   4.482   3.485   1.606  0.2676  0.3614  0.0373
    1SOL     OW 2993   0.219   3.620   1.509 -0.4704 -0.1831 -0.2785
    1SOL    HW2 2994   0.208   3.709   1.542 -0.3241 -1.1470  2.4711
    1SOL    HW3 2995   0.142   3.573   1.539  0.1747 -1.3592 -0.4289
    1SOL    MW4 2996   0.207   3.625   1.517 -0.3660 -0.4656  0.0644
    1SOL     OW 2997   0.216   3.890   1.612  0.1652  0.1967 -0.1014
    1SOL    HW2 2998   0.215   3.888   1.708 -0.1988  1.5534 -0.0638
    1SOL    HW3 2999   0.297   3.935   1.589 -0.0847  0.4964 -0.4102
    1SOL    MW4 3000   0.226   3.896   1.621  0.0842  0.4151 -0.1371
    1SOL     OW 3001   4.476   3.991   1.514 -0.0493 -0.4954  0.3736
    1SOL    HW2 3002   4.466   4.082   1.541 -0.4560 -0.6545  0.7586
    1SOL    HW3 3003   4.560   3.963   1.551  1.3412  0.5092 -1.9342
    1SOL    MW4 3004   4.486   3.999   1.522  0.0796 -0.3839  0.1199
    1SOL     OW 3005   4.453   4.250   1.597 -0.9749 -0.2180 -0.0644
    1SOL    HW2 3006   4.458   4.255   1.692 -0.5912 -0.0244 -0.0911
    1SOL    HW3 3007   4.377   4.302   1.574 -1.3929 -0.7202  0.1744
    1SOL    MW4 3008   4.444   4.258   1.606 -0.9794 -0.2589 -0.0365
    1SOL     OW 3009   0.222   4.358   1.497  0.0086 -0.0579 -0.0034
    1SOL    HW2 3010   0.132   4.334   1.518 -0.7836  2.7211  0.0137
    1SOL    HW3 3011   0.236   4.442   1.542  1.2894  1.4689 -3.1001
    1SOL    MW4 3012   0.212   4.366   1.506  0.0730  0.5102 -0.4097
    1SOL     OW 3013   0.668   4.636   1.633  0.2657 -0.1463 -0.3655
    1SOL    HW2 3014   0.744   4.673   1.588  0.4641 -0.7905 -0.5779
    1SOL    HW3 3015   0.595   4.691   1.607  0.6292  0.3526 -0.3275
    1SOL    MW4 3016   0.669   4.648   1.624  0.3397 -0.1655 -0.3886
    1SOL     OW 3017   0.433   0.108   1.529  0.2478 -0.8873 -0.1360
    1SOL    HW2 3018   0.435   0.195   1.570  2.1997 -1.1068  0.2808
    1SOL    HW3 3019   0.431   0.127   1.435  0.4852 -0.3731 -0.0432
    1SOL    MW4 3020   0.433   0.122   1.522  0.5367 -0.8484 -0.0689
    1SOL     OW 3021   0.424   0.371   1.620  0.3071 -0.0088  0.1846
    1SOL    HW2 3022   0.499   0.410   1.575  0.0205 -2.0902 -2.2095
    1SOL    HW3 3023   0.348   0.400   1.569 -0.4607  1.1460  1.9218
    1SOL    MW4 3024   0.424   0.380   1.607  0.1680 -0.1311  0.0979
    1SOL     OW 3025   0.656   0.500   1.552 -0.8122  0.2708 -0.2349
    1SOL    HW2 3026   0.652   0.592   1.580 -0.7519  0.1730  0.0942
    1SOL    HW3 3027   0.684   0.505   1.460 -0.9548  0.5883 -0.2636
    1SOL    MW4 3028   0.659   0.513   1.544 -0.8230  0.2998 -0.1953
    1SOL     OW 3029   0.624   0.765   1.632  0.0564  0.1874 -0.2274
    1SOL    HW2 3030   0.633   0.754   1.727  0.8837 -0.4907 -0.3747
    1SOL    HW3 3031   0.698   0.822   1.608 -0.8943  1.4178 -0.2901
    1SOL    MW4 3032   0.635   0.771   1.641  0.0401  0.2602 -0.2551
    1SOL     OW 3033   0.421   0.870   1.485 -0.3207 -0.2454  0.0371
    1SOL    HW2 3034   0.426   0.957   1.525  2.4344  0.0251 -0.7783
    1SOL    HW3 3035   0.481   0.817   1.537 -0.2207 -1.0656 -0.9063
    1SOL    MW4 3036   0.430   0.875   1.497  0.0560 -0.3179 -0.1948
    1SOL     OW 3037   0.442   1.135   1.623  0.2883 -0.2551 -0.0660
    1SOL    HW2 3038   0.518   1.186   1.593 -0.3359  1.1347  0.6889
    1SOL    HW3 3039   0.366   1.182   1.588 -0.2519 -1.4304 -0.4902
    1SOL    MW4 3040   0.442   1.148   1.614  0.1347 -0.2270 -0.0224
    1SOL     OW 3041   0.652   1.278   1.504 -0.0302 -0.2115  0.2696
    1SOL    HW2 3042   0.653   1.371   1.529 -2.0515 -0.3696  0.9523
    1SOL    HW3 3043   0.655   1.279   1.408 -1.8613  0.6170  0.2037
    1SOL    MW4 3044   0.653   1.291   1.495 -0.5384 -0.1231  0.3510
    1SOL     OW 3045   0.655   1.539   1.560 -0.1639  0.5455 -0.0199
    1SOL    HW2 3046   0.731   1.594   1.538 -0.2707  0.2346 -1.2054
    1SOL    HW3 3047   0.579   1.592   1.533 -0.3160  0.3399  0.0054
    1SOL    MW4 3048   0.655   1.553   1.553 -0.1981  0.4774 -0.1730
    1SOL     OW 3049   0.445   1.681   1.494  0.4365  0.0001  0.4852
    1SOL    HW2 3050   0.436   1.768   1.531 -0.9319 -0.5376  1.4831
    1SOL    HW3 3051   0.378   1.629   1.538  1.3779 -1.6119  0.0783
    1SOL    MW4 3052   0.435   1.685   1.504  0.3802 -0.2836  0.5631
    1SOL     OW 3053   0.400   1.938   1.609  0.0143 -0.0526  0.2839
    1SOL    HW2 3054   0.390   1.936   1.705  0.9992 -0.0828  0.3893
    1SOL    HW3 3055   0.327   1.991   1.579  0.9515  1.8236  1.2268
    1SOL    MW4 3056   0.389   1.945   1.618  0.2679  0.1909  0.4222
    1SOL     OW 3057   0.636   2.037   1.494 -0.0860  0.2667 -0.5192
    1SOL    HW2 3058   0.716   2.014   1.541 -0.4693  0.6624  0.3448
    1SOL    HW3 3059   0.567   1.989   1.540 -0.6088  1.5098  0.0255
    1SOL    MW4 3060   0.637   2.028   1.507 -0.2055  0.4830 -0.3332
    1SOL     OW 3061   0.674   2.308   1.575 -0.2115  0.2691 -0.2346
    1SOL    HW2 3062   0.593   2.357   1.560 -0.9844 -0.9800 -0.2708
    1SOL    HW3 3063   0.656   2.221   1.540  1.5509  0.2892 -1.2231
    1SOL    MW4 3064   0.661   2.303   1.569 -0.0809  0.1073 -0.3698
    1SOL     OW 3065   0.418   2.424   1.519  0.2506 -0.4269 -0.7571
    1SOL    HW2 3066   0.418   2.514   1.554  0.1342 -0.5829 -0.3536
    1SOL    HW3 3067   0.352   2.378   1.571  0.6348 -0.8672 -0.6521
    1SOL    MW4 3068   0.410   2.430   1.530  0.2859 -0.5054 -0.6900
    1SOL     OW 3069   0.469   2.690   1.633 -0.1405 -0.2382 -0.1751
    1SOL    HW2 3070   0.501   2.694   1.723  0.2070  0.3792 -0.3211
    1SOL    HW3 3071   0.521   2.756   1.586 -0.7332 -0.1332 -0.6950
    1SOL    MW4 3072   0.480   2.699   1.638 -0.1729 -0.1431 -0.2630
    1SOL     OW 3073   0.624   2.868   1.500  0.2325  0.0781 -0.2893
    1SOL    HW2 3074   0.629   2.955   1.538  0.8996 -0.4837  0.9553
    1SOL    HW3 3075   0.629   2.882   1.406  0.5625  1.3646 -0.0901
    1SOL    MW4 3076   0.625   2.881   1.493  0.3641  0.1736 -0.0988
    1SOL     OW 3077   0.662   3.123   1.612  0.5484  0.0308  0.2040
    1SOL    HW2 3078   0.743   3.150   1.570  0.7708 -0.9993 -0.0362
    1SOL    HW3 3079   0.593   3.164   1.560  0.8032 -1.4737 -1.3651
    1SOL    MW4 3080   0.663   3.132   1.600  0.6113 -0.3037 -0.0348
    1SOL     OW 3081   0.414   3.213   1.481  0.0602 -0.2712  0.2691
    1SOL    HW2 3082   0.342   3.173   1.530 -0.4973  1.7560  1.1773
    1SOL    HW3 3083   0.393   3.197   1.389 -1.5213  0.2011  0.5338
    1SOL    MW4 3084   0.402   3.206   1.475 -0.2220  0.0584  0.4239
    1SOL     OW 3085   0.447   3.469   1.597 -0.0783  0.0312 -0.2167
    1SOL    HW2 3086   0.452   3.386   1.549 -1.1694  0.7318 -1.5995
    1SOL    HW3 3087   0.363   3.507   1.569  0.0597  1.2389  0.9859
    1SOL    MW4 3088   0.437   3.463   1.587 -0.2041  0.2832 -0.2404
    1SOL     OW 3089   0.648   3.617   1.458 -0.1914  0.0195  0.1520
    1SOL    HW2 3090   0.725   3.566   1.482 -0.1030  1.2088  2.5609
    1SOL    HW3 3091   0.576   3.575   1.505 -0.4928  0.7288  0.3352
    1SOL    MW4 3092   0.649   3.605   1.467 -0.2195  0.2699  0.4940
    1SOL     OW 3093   0.671   3.886   1.581  0.6998  0.1599 -0.2245
    1SOL    HW2 3094   0.740   3.922   1.525  0.9198 -0.1605 -0.1567
    1SOL    HW3 3095   0.666   3.794   1.557  0.0659  0.2538 -0.4643
    1SOL    MW4 3096   0.680   3.879   1.570  0.6452  0.1299 -0.2470
    1SOL     OW 3097   0.445   4.018   1.492 -0.1669  0.0765 -0.2411
    1SOL    HW2 3098   0.529   3.976   1.512 -1.0292 -1.8439 -0.5094
    1SOL    HW3 3099   0.437   4.010   1.397 -0.7500  0.0628 -0.1914
    1SOL    MW4 3100   0.455   4.011   1.482 -0.3576 -0.1783 -0.2700
    1SOL     OW 3101   0.403   4.234   1.647  0.2732 -0.1216  0.1586
    1SOL    HW2 3102   0.423   4.155   1.596  0.5879 -0.0353  0.1507
    1SOL    HW3 3103   0.335   4.278   1.595 -0.9031 -1.0809  0.8451
    1SOL    MW4 3104   0.396   4.229   1.633  0.1595 -0.2370  0.2482
    1SOL     OW 3105   0.627   4.382   1.546  0.0125 -0.3846  0.2548
    1SOL    HW2 3106   0.553   4.341   1.589 -0.1267  0.1150  0.4961
    1SOL    HW3 3107   0.627   4.472   1.579 -0.5206  0.2131 -1.3284
    1SOL    MW4 3108   0.618   4.389   1.556 -0.0762 -0.2398  0.0778
    1SOL     OW 3109   1.126   4.631   1.555  0.2020  0.2092 -0.0646
    1SOL    HW2 3110   1.118   4.633   1.651  2.7495 -1.2324  0.2234
    1SOL    HW3 3111   1.205   4.681   1.536  0.0186  0.0183 -1.3855
    1SOL    MW4 3112   1.136   4.638   1.565  0.5139 -0.0067 -0.2009
    1SOL     OW 3113   0.885   0.089   1.479  0.3800  0.3279 -0.2450
    1SOL    HW2 3114   0.891   0.183   1.497 -0.2481  0.0510  1.4472
    1SOL    HW3 3115   0.971   0.055   1.505 -0.1935  0.0765  1.3166
    1SOL    MW4 3116   0.897   0.097   1.485  0.2215  0.2582  0.1843
    1SOL     OW 3117   0.893   0.369   1.600  0.1678  0.1077  0.0848
    1SOL    HW2 3118   0.902   0.354   1.694  0.3592 -1.3107 -0.1532
    1SOL    HW3 3119   0.815   0.424   1.592  0.1816  0.2815  1.0743
    1SOL    MW4 3120   0.884   0.375   1.611  0.1948 -0.0565  0.1839
    1SOL     OW 3121   1.109   0.527   1.517 -0.2788 -0.4448 -0.2059
    1SOL    HW2 3122   1.112   0.617   1.549  0.4225 -0.5655  0.0798
    1SOL    HW3 3123   1.023   0.494   1.545 -1.6558  0.9699 -2.6159
    1SOL    MW4 3124   1.098   0.534   1.525 -0.3680 -0.2742 -0.4864
    1SOL     OW 3125   1.098   0.780   1.615 -0.3628 -0.3326 -0.1650
    1SOL    HW2 3126   1.104   0.773   1.710 -1.5890 -0.3679 -0.0898
    1SOL    HW3 3127   1.179   0.825   1.590 -0.6803  0.9291  1.0206
    1SOL    MW4 3128   1.110   0.785   1.624 -0.5664 -0.1708  0.0013
    1SOL     OW 3129   0.847   0.861   1.522  0.0647 -0.3438  0.4379
    1SOL    HW2 3130   0.921   0.808   1.551  0.5988 -0.0125 -0.3294
    1SOL    HW3 3131   0.848   0.854   1.427 -0.2116  0.5844  0.3652
    1SOL    MW4 3132   0.857   0.853   1.513  0.0988 -0.1777  0.3271
    1SOL     OW 3133   0.892   1.135   1.595 -0.0080 -0.7103 -0.1611
    1SOL    HW2 3134   0.879   1.045   1.565  1.3618 -0.0379 -2.8997
    1SOL    HW3 3135   0.817   1.183   1.560 -0.2583 -0.5797  0.5330
    1SOL    MW4 3136   0.880   1.130   1.587  0.1397 -0.6043 -0.4309
    1SOL     OW 3137   1.124   1.271   1.494 -0.3877  0.2020 -0.2819
    1SOL    HW2 3138   1.200   1.227   1.531 -0.0056  1.3119  0.2797
    1SOL    HW3 3139   1.049   1.227   1.533 -0.0214 -0.4439 -0.3083
    1SOL    MW4 3140   1.124   1.260   1.504 -0.2888  0.2632 -0.2112
    1SOL     OW 3141   1.111   1.520   1.611  0.3696 -0.1175 -0.1684
    1SOL    HW2 3142   1.182   1.576   1.580 -1.5272  1.0203 -2.6461
    1SOL    HW3 3143   1.128   1.435   1.569  1.4994 -0.5323  1.0836
    1SOL    MW4 3144   1.123   1.516   1.602  0.2683 -0.0221 -0.3300
    1SOL     OW 3145   0.896   1.686   1.512 -0.1055 -0.2274  0.0270
    1SOL    HW2 3146   0.953   1.614   1.540 -1.4332 -1.7506 -1.1159
    1SOL    HW3 3147   0.901   1.686   1.417 -0.7594  0.6866 -0.0223
    1SOL    MW4 3148   0.904   1.677   1.503 -0.3669 -0.3077 -0.1303
    1SOL     OW 3149   0.868   1.944   1.612  0.4462  0.1386 -0.0822
    1SOL    HW2 3150   0.951   1.983   1.585  0.5713  0.1048  0.2458
    1SOL    HW3 3151   0.876   1.852   1.590  0.0025  0.3599 -1.2076
    1SOL    MW4 3152   0.880   1.937   1.606  0.4041  0.1633 -0.1875
    1SOL     OW 3153   1.106   2.067   1.499 -0.0362 -0.2448 -0.3779
    1SOL    HW2 3154   1.184   2.031   1.541  0.5409  0.7743 -0.5457
    1SOL    HW3 3155   1.106   2.159   1.526 -1.0096 -0.1701 -0.6391
    1SOL    MW4 3156   1.116   2.075   1.508 -0.0885 -0.1006 -0.4346
    1SOL     OW 3157   1.109   2.332   1.546  0.3310 -0.3027  0.2941
    1SOL    HW2 3158   1.179   2.384   1.507 -0.3952  0.3949 -0.1049
    1SOL    HW3 3159   1.029   2.366   1.506 -0.0842 -2.4933 -0.7976
    1SOL    MW4 3160   1.108   2.343   1.536  0.1804 -0.4995  0.0974
    1SOL     OW 3161   0.877   2.435   1.421  0.1462 -0.0374 -0.0513
    1SOL    HW2 3162   0.898   2.521   1.459  0.3623 -0.5894  1.1044
    1SOL    HW3 3163   0.809   2.400   1.478  0.4511 -0.8663 -0.1889
    1SOL    MW4 3164   0.871   2.442   1.433  0.2150 -0.2196  0.0830
    1SOL     OW 3165   0.847   2.682   1.546 -0.3179 -0.2000  0.2423
    1SOL    HW2 3166   0.833   2.664   1.639 -0.3729  1.2732  0.5197
    1SOL    HW3 3167   0.771   2.734   1.520  0.2689  0.3667 -0.3467
    1SOL    MW4 3168   0.835   2.686   1.555 -0.2477  0.0689  0.2011
    1SOL     OW 3169   1.099   2.795   1.494 -0.3365 -0.0865 -0.2230
    1SOL    HW2 3170   1.097   2.887   1.520 -0.2567 -0.1387 -0.0347
    1SOL    HW3 3171   1.019   2.757   1.530 -0.1304 -0.2031  0.1175
    1SOL    MW4 3172   1.088   2.802   1.502 -0.2987 -0.1090 -0.1532
    1SOL     OW 3173   1.102   3.058   1.570  0.3268  0.2285  0.1043
    1SOL    HW2 3174   1.108   3.075   1.663  1.0611  0.6277 -0.0198
    1SOL    HW3 3175   1.178   3.101   1.531  0.1358 -0.0950 -0.6552
    1SOL    MW4 3176   1.113   3.066   1.577  0.3985  0.2384 -0.0120
    1SOL     OW 3177   0.903   3.222   1.492 -0.3732  0.1471 -0.0483
    1SOL    HW2 3178   0.979   3.170   1.518  0.0722  0.4208 -0.7982
    1SOL    HW3 3179   0.911   3.231   1.397 -0.7169  1.1458  0.0079
    1SOL    MW4 3180   0.914   3.217   1.483 -0.3598  0.3150 -0.1398
    1SOL     OW 3181   0.853   3.472   1.579 -0.0232  0.0317  0.4993
    1SOL    HW2 3182   0.929   3.524   1.552 -0.0798  0.2439  0.7510
    1SOL    HW3 3183   0.879   3.381   1.560 -0.7252  0.2819 -1.8686
    1SOL    MW4 3184   0.867   3.467   1.573 -0.1233  0.0925  0.2202
    1SOL     OW 3185   1.086   3.590   1.507  0.1978  0.0435 -0.0734
    1SOL    HW2 3186   1.173   3.562   1.533 -0.1370 -0.9146  0.0510
    1SOL    HW3 3187   1.095   3.615   1.415  0.9053  1.3282  0.3321
    1SOL    MW4 3188   1.098   3.589   1.499  0.2470  0.0865 -0.0033
    1SOL     OW 3189   1.053   3.861   1.572  0.0935 -0.0633 -0.1317
    1SOL    HW2 3190   1.131   3.911   1.549  1.3210 -1.1333  1.5835
    1SOL    HW3 3191   1.071   3.773   1.538 -1.1031  0.0852 -1.1979
    1SOL    MW4 3192   1.066   3.856   1.565  0.0975 -0.1850 -0.0461
    1SOL     OW 3193   0.865   4.041   1.433  0.0183  0.0163 -0.0764
    1SOL    HW2 3194   0.854   4.108   1.500 -0.0672  0.6933 -0.7648
    1SOL    HW3 3195   0.946   3.996   1.457  0.6346  1.0464 -0.1996
    1SOL    MW4 3196   0.874   4.044   1.445  0.0883  0.2413 -0.1836
    1SOL     OW 3197   0.881   4.282   1.579 -0.3880  0.6543  0.0254
    1SOL    HW2 3198   0.879   4.262   1.672 -1.7442 -0.2028 -0.1726
    1SOL    HW3 3199   0.800   4.330   1.562 -0.5353  0.1284 -0.8423
    1SOL    MW4 3200   0.870   4.286   1.589 -0.5864  0.4721 -0.1153
    1SOL     OW 3201   1.129   4.365   1.486  0.2082 -0.1861  0.2540
    1SOL    HW2 3202   1.043   4.327   1.505  0.3171 -0.2388  0.6403
    1SOL    HW3 3203   1.119   4.458   1.505 -0.5992  0.3294 -2.4689
    1SOL    MW4 3204   1.117   4.372   1.491  0.1161 -0.1254 -0.0541
    1SOL     OW 3205   1.589   0.002   1.587  0.0439 -0.2854  0.0611
    1SOL    HW2 3206   1.582   0.000   1.682 -0.8261 -2.4612 -0.0082
    1SOL    HW3 3207   1.506   0.040   1.558  0.3388  0.4447  0.1704
    1SOL    MW4 3208   1.577   0.007   1.595 -0.0319 -0.4761  0.0663
    1SOL     OW 3209   1.349   0.110   1.508  0.5149  0.4601 -0.1227
    1SOL    HW2 3210   1.310   0.190   1.542 -1.9684  0.0291 -1.8431
    1SOL    HW3 3211   1.342   0.118   1.413  2.6642 -0.6288 -0.4096
    1SOL    MW4 3212   1.343   0.122   1.500  0.4709  0.2596 -0.3877
    1SOL     OW 3213   1.302   0.361   1.636  0.1218  0.0339 -0.6711
    1SOL    HW2 3214   1.385   0.384   1.594  0.9235  0.4191  1.0633
    1SOL    HW3 3215   1.239   0.425   1.604  1.0993  1.3093 -0.0631
    1SOL    MW4 3216   1.304   0.372   1.627  0.3564  0.2530 -0.3620
    1SOL     OW 3217   1.543   0.495   1.538 -0.3875 -1.0896  0.0294
    1SOL    HW2 3218   1.616   0.434   1.548  1.1174  0.6960  0.2537
    1SOL    HW3 3219   1.535   0.509   1.444  1.9628  1.4626  0.1434
    1SOL    MW4 3220   1.552   0.489   1.527  0.1211 -0.5172  0.0741
    1SOL     OW 3221   1.612   0.736   1.647  0.0635 -0.3579  0.4410
    1SOL    HW2 3222   1.604   0.729   1.742 -0.1932 -1.4209  0.3504
    1SOL    HW3 3223   1.583   0.651   1.614 -1.9392  0.7464 -0.7300
    1SOL    MW4 3224   1.607   0.724   1.655 -0.2346 -0.3524  0.2745
    1SOL     OW 3225   1.350   0.878   1.548  0.2844  0.0508  0.5371
    1SOL    HW2 3226   1.430   0.837   1.581  0.4974 -0.5291 -0.6927
    1SOL    HW3 3227   1.355   0.869   1.453 -1.1919  0.0840  0.4388
    1SOL    MW4 3228   1.361   0.871   1.540  0.1178 -0.0212  0.3619
    1SOL     OW 3229   1.385   1.142   1.611  0.1431 -0.4050  0.7279
    1SOL    HW2 3230   1.348   1.156   1.699  0.2078 -2.1290  1.0440
    1SOL    HW3 3231   1.384   1.047   1.599  1.7412 -0.3051 -0.4468
    1SOL    MW4 3232   1.380   1.131   1.621  0.3625 -0.6193  0.6145
    1SOL     OW 3233   1.585   1.296   1.524  0.4520  0.5436  0.3399
    1SOL    HW2 3234   1.519   1.236   1.557 -0.6268  1.3776 -0.2981
    1SOL    HW3 3235   1.580   1.288   1.429  0.6070  1.3276  0.2636
    1SOL    MW4 3236   1.576   1.287   1.516  0.3301  0.7571  0.2457
    1SOL     OW 3237   1.514   1.559   1.586  0.6883 -0.1775  0.3013
    1SOL    HW2 3238   1.530   1.562   1.680 -0.5970 -0.7031  0.5483
    1SOL    HW3 3239   1.532   1.468   1.561  1.6818  0.1195 -0.0888
    1SOL    MW4 3240   1.518   1.548   1.595  0.6499 -0.2077  0.2824
    1SOL     OW 3241   1.295   1.690   1.489 -0.2079  0.0370 -0.9857
    1SOL    HW2 3242   1.369   1.651   1.535 -0.7988  0.1989  0.1223
    1SOL    HW3 3243   1.314   1.676   1.396 -0.1219 -2.3832 -0.6503
    1SOL    MW4 3244   1.307   1.683   1.483 -0.2744 -0.2609 -0.7954
    1SOL     OW 3245   1.339   1.958   1.610 -0.1521  0.3154  0.0377
    1SOL    HW2 3246   1.335   1.956   1.705  1.9244  0.8827  0.1489
    1SOL    HW3 3247   1.332   1.866   1.583 -0.5236  0.1417  0.7328
    1SOL    MW4 3248   1.338   1.945   1.619  0.0728  0.3674  0.1441
    1SOL     OW 3249   1.568   2.051   1.484 -0.2187 -0.1714 -0.0446
    1SOL    HW2 3250   1.489   2.012   1.521 -0.5540  0.2990 -0.2695
    1SOL    HW3 3251   1.542   2.081   1.397  0.0200  0.6377  0.1662
    1SOL    MW4 3252   1.554   2.050   1.477 -0.2314 -0.0024 -0.0465
    1SOL     OW 3253   1.522   2.301   1.589  0.4206 -0.3558  0.5280
    1SOL    HW2 3254   1.588   2.356   1.546  1.3548 -0.2071  2.1011
    1SOL    HW3 3255   1.543   2.212   1.562  0.2172 -0.1581 -0.3139
    1SOL    MW4 3256   1.533   2.297   1.580  0.5170 -0.3102  0.6244
    1SOL     OW 3257   1.323   2.479   1.472  0.0380  0.6409 -0.1515
    1SOL    HW2 3258   1.340   2.559   1.520 -1.4653  0.1297  1.3154
    1SOL    HW3 3259   1.376   2.412   1.516  0.7018  0.6739 -0.8886
    1SOL    MW4 3260   1.332   2.480   1.484 -0.0726  0.5777 -0.0552
    1SOL     OW 3261   1.344   2.712   1.623  0.2051  0.1451  0.6935
    1SOL    HW2 3262   1.401   2.782   1.590  1.1604 -0.5701  0.8267
    1SOL    HW3 3263   1.260   2.728   1.580  0.9639  0.2275 -0.7983
    1SOL    MW4 3264   1.340   2.724   1.613  0.4314  0.0618  0.5141
    1SOL     OW 3265   1.540   2.873   1.506 -0.2727  0.3323  0.0728
    1SOL    HW2 3266   1.616   2.822   1.533 -1.3086 -0.7246  1.0731
    1SOL    HW3 3267   1.538   2.865   1.411  0.6483  0.0492  0.0715
    1SOL    MW4 3268   1.549   2.865   1.497 -0.2879  0.1554  0.2046
    1SOL     OW 3269   1.570   3.129   1.545 -0.1095  0.0435  0.1247
    1SOL    HW2 3270   1.648   3.162   1.500 -0.3719  1.9791  1.0487
    1SOL    HW3 3271   1.572   3.035   1.529  1.1500  0.3706 -1.8111
    1SOL    MW4 3272   1.581   3.121   1.537  0.0221  0.3421 -0.0088
    1SOL     OW 3273   1.307   3.195   1.472 -0.5143 -0.4235  0.4126
    1SOL    HW2 3274   1.311   3.281   1.515 -0.3287  0.0387 -0.5114
    1SOL    HW3 3275   1.392   3.155   1.491 -0.4780 -0.2697  0.5760
    1SOL    MW4 3276   1.319   3.201   1.480 -0.4851 -0.3419  0.3122
    1SOL     OW 3277   1.319   3.459   1.609 -0.3766 -0.6097  0.4079
    1SOL    HW2 3278   1.317   3.476   1.703  0.6893  0.7276  0.2084
    1SOL    HW3 3279   1.401   3.500   1.580  0.2140 -2.5983 -0.7988
    1SOL    MW4 3280   1.330   3.467   1.618 -0.1581 -0.6957  0.2224
    1SOL     OW 3281   1.539   3.625   1.522  0.0148 -0.0216  0.2268
    1SOL    HW2 3282   1.518   3.714   1.549 -0.1460 -0.2612  0.8813
    1SOL    HW3 3283   1.549   3.631   1.427  0.7419  0.8459  0.3473
    1SOL    MW4 3284   1.538   3.638   1.513  0.0894  0.0615  0.3291
    1SOL     OW 3285   1.553   3.910   1.574  0.0639 -0.1143 -0.1255
    1SOL    HW2 3286   1.532   3.912   1.667 -0.3058 -1.8129 -0.1603
    1SOL    HW3 3287   1.476   3.947   1.531  0.7835  1.9414  0.3143
    1SOL    MW4 3288   1.540   3.915   1.580  0.1100 -0.0672 -0.0721
    1SOL     OW 3289   1.284   3.998   1.508 -0.0840 -0.0649 -0.0708
    1SOL    HW2 3290   1.313   4.079   1.551  0.4248 -0.2426 -0.0728
    1SOL    HW3 3291   1.305   4.011   1.416  0.0761 -0.2360 -0.0572
    1SOL    MW4 3292   1.291   4.011   1.502  0.0043 -0.1116 -0.0694
    1SOL     OW 3293   1.327   4.246   1.611  0.1524  0.1285 -0.0642
    1SOL    HW2 3294   1.398   4.302   1.578 -0.2822  0.8279  0.1741
    1SOL    HW3 3295   1.249   4.279   1.567  0.0264 -0.9059 -0.6343
    1SOL    MW4 3296   1.326   4.258   1.601  0.0784  0.0844 -0.1080
    1SOL     OW 3297   1.547   4.397   1.523 -0.3717 -0.5950  0.4279
    1SOL    HW2 3298   1.638   4.368   1.528 -0.4217 -1.1262 -1.2160
    1SOL    HW3 3299   1.550   4.489   1.550  0.7153 -0.5101  0.0596
    1SOL    MW4 3300   1.559   4.406   1.527 -0.2350 -0.6547  0.1625
    1SOL     OW 3301   2.034   4.641   1.561  0.0857 -0.1676 -0.2692
    1SOL    HW2 3302   2.037   4.650   1.656 -0.5222 -1.1159 -0.1458
    1SOL    HW3 3303   1.951   4.680   1.535 -0.5739 -1.4920 -0.2017
    1SOL    MW4 3304   2.024   4.647   1.570 -0.0815 -0.4678 -0.2441
    1SOL     OW 3305   1.818   0.079   1.462  0.0078  0.0197  0.5358
    1SOL    HW2 3306   1.740   0.040   1.500  1.0770 -2.2931  0.4207
    1SOL    HW3 3307   1.803   0.075   1.367  0.6353 -1.2476  0.4826
    1SOL    MW4 3308   1.806   0.074   1.454  0.2315 -0.4527  0.5137
    1SOL     OW 3309   1.769   0.336   1.602 -0.1005 -0.0650 -0.1591
    1SOL    HW2 3310   1.846   0.386   1.575 -0.6769  0.3654 -1.0316
    1SOL    HW3 3311   1.775   0.254   1.554  0.3097 -0.4236  0.4987
    1SOL    MW4 3312   1.780   0.332   1.592 -0.1224 -0.0555 -0.1874
    1SOL     OW 3313   1.991   0.478   1.490  0.2966  0.2158 -0.3081
    1SOL    HW2 3314   2.071   0.435   1.522  1.5289  2.1372 -0.7182
    1SOL    HW3 3315   1.981   0.554   1.547 -1.1054  0.1477 -0.4516
    1SOL    MW4 3316   2.001   0.482   1.502  0.2742  0.4603 -0.3811
    1SOL     OW 3317   2.000   0.711   1.636  0.0591  0.1367 -0.3679
    1SOL    HW2 3318   2.081   0.751   1.604  0.2720  0.3765  0.4578
    1SOL    HW3 3319   1.932   0.772   1.610  0.3899  1.0950  0.9451
    1SOL    MW4 3320   2.002   0.724   1.628  0.1307  0.2948 -0.0858
    1SOL     OW 3321   1.817   0.887   1.530  0.4094 -0.0531  0.3446
    1SOL    HW2 3322   1.804   0.972   1.572  2.4380 -0.2782  1.4692
    1SOL    HW3 3323   1.758   0.828   1.577 -1.1345  0.7503 -0.5559
    1SOL    MW4 3324   1.807   0.890   1.541  0.4734  0.0232  0.3742
    1SOL     OW 3325   1.795   1.151   1.616 -0.1187 -0.4510 -0.0466
    1SOL    HW2 3326   1.870   1.196   1.578 -1.4426  0.9962 -1.0405
    1SOL    HW3 3327   1.719   1.196   1.578 -1.4832 -2.4353  0.2865
    1SOL    MW4 3328   1.795   1.163   1.606 -0.4734 -0.5218 -0.1339
    1SOL     OW 3329   2.025   1.252   1.499  0.3677 -0.1579  0.9327
    1SOL    HW2 3330   2.033   1.336   1.542 -0.4548  0.9235 -0.9583
    1SOL    HW3 3331   2.017   1.273   1.406  1.8027 -2.3985  0.2556
    1SOL    MW4 3332   2.025   1.266   1.492  0.4487 -0.3108  0.5939
    1SOL     OW 3333   2.009   1.503   1.611 -0.2062  0.0366 -0.4070
    1SOL    HW2 3334   2.084   1.552   1.577 -0.5067  1.0111  0.3396
    1SOL    HW3 3335   1.932   1.549   1.578 -0.4957  0.6550  1.0894
    1SOL    MW4 3336   2.009   1.515   1.602 -0.2840  0.2468 -0.1111
    1SOL     OW 3337   1.781   1.644   1.522 -0.1883  0.3793  0.5047
    1SOL    HW2 3338   1.693   1.614   1.544 -0.5828  0.5513 -0.8433
    1SOL    HW3 3339   1.788   1.632   1.428  1.2306  0.3762  0.6010
    1SOL    MW4 3340   1.770   1.638   1.513 -0.0530  0.4015  0.3396
    1SOL     OW 3341   1.805   1.905   1.580  0.0515  0.3638 -0.1184
    1SOL    HW2 3342   1.804   1.813   1.552  1.2239  0.2639  0.1780
    1SOL    HW3 3343   1.717   1.937   1.558 -1.1868 -1.4643  1.9053
    1SOL    MW4 3344   1.793   1.897   1.573  0.0428  0.1096  0.1878
    1SOL     OW 3345   2.011   2.054   1.497 -0.4247 -0.2805  0.0138
    1SOL    HW2 3346   2.092   2.025   1.539  0.1790  0.0539 -0.8920
    1SOL    HW3 3347   1.943   1.998   1.535  0.3055 -0.9172  0.4077
    1SOL    MW4 3348   2.012   2.042   1.507 -0.2487 -0.3204 -0.0539
    1SOL     OW 3349   1.931   2.297   1.590  0.1379  0.1438 -0.2576
    1SOL    HW2 3350   1.951   2.289   1.683  2.1931  1.7389 -0.5169
    1SOL    HW3 3351   1.960   2.214   1.551 -1.4003 -0.8191  0.5937
    1SOL    MW4 3352   1.937   2.285   1.597  0.2059  0.2275 -0.1795
    1SOL     OW 3353   1.738   2.474   1.479  0.3110 -0.4717  0.5935
    1SOL    HW2 3354   1.798   2.410   1.518  1.3137  0.2370  0.2229
    1SOL    HW3 3355   1.755   2.469   1.385 -1.1134 -1.1719  0.3548
    1SOL    MW4 3356   1.748   2.465   1.471  0.2553 -0.4706  0.5132
    1SOL     OW 3357   1.759   2.731   1.577 -0.5437  0.3645 -0.4454
    1SOL    HW2 3358   1.847   2.762   1.553  0.4839 -0.9034  1.5544
    1SOL    HW3 3359   1.754   2.643   1.540 -0.1979 -0.3305  1.1335
    1SOL    MW4 3360   1.770   2.724   1.569 -0.3624  0.1054  0.0267
    1SOL     OW 3361   1.993   2.849   1.508  0.3366 -0.4750 -0.0659
    1SOL    HW2 3362   2.004   2.943   1.525  0.2240 -0.3588 -0.6443
    1SOL    HW3 3363   1.999   2.840   1.413  0.1138 -1.0265 -0.0314
    1SOL    MW4 3364   1.995   2.860   1.498  0.2924 -0.5326 -0.1378
    1SOL     OW 3365   1.970   3.124   1.560 -0.1106 -0.4036  0.5095
    1SOL    HW2 3366   1.957   3.139   1.653 -0.5107 -0.1637  0.4146
    1SOL    HW3 3367   2.063   3.140   1.545 -0.0844 -0.2675  0.8332
    1SOL    MW4 3368   1.981   3.128   1.570 -0.1599 -0.3538  0.5398
    1SOL     OW 3369   1.772   3.268   1.428 -0.4176 -0.1278  0.2212
    1SOL    HW2 3370   1.759   3.354   1.468 -1.5890 -0.2334  0.1129
    1SOL    HW3 3371   1.852   3.234   1.467  0.3705  1.2598 -0.1722
    1SOL    MW4 3372   1.781   3.275   1.438 -0.4681  0.0415  0.1550
    1SOL     OW 3373   1.775   3.510   1.578 -0.1004  0.0226 -0.0163
    1SOL    HW2 3374   1.767   3.509   1.674  0.4458  0.1478  0.0307
    1SOL    HW3 3375   1.695   3.553   1.548  0.6737  1.8455  0.4875
    1SOL    MW4 3376   1.763   3.516   1.587  0.0738  0.2797  0.0564
    1SOL     OW 3377   2.031   3.587   1.483  0.0551  0.2558 -0.0415
    1SOL    HW2 3378   2.090   3.526   1.527  0.1093  0.1937 -0.1990
    1SOL    HW3 3379   1.945   3.572   1.524 -0.2325 -0.9145 -1.0415
    1SOL    MW4 3380   2.027   3.577   1.494  0.0246  0.0930 -0.1942
    1SOL     OW 3381   2.042   3.860   1.558 -0.3044  0.0094 -0.0485
    1SOL    HW2 3382   2.118   3.902   1.518 -0.6217  0.9889  0.3731
    1SOL    HW3 3383   2.050   3.768   1.532  1.9804 -0.2593  1.4391
    1SOL    MW4 3384   2.053   3.853   1.549 -0.0451  0.1030  0.2035
    1SOL     OW 3385   1.819   4.030   1.510  0.1448  0.1780 -0.0835
    1SOL    HW2 3386   1.899   3.989   1.543  2.0434  0.0651 -4.4122
    1SOL    HW3 3387   1.749   3.969   1.535  1.6189 -0.6500  2.1964
    1SOL    MW4 3388   1.820   4.016   1.517  0.5898  0.0544 -0.3538
    1SOL     OW 3389   1.825   4.294   1.600 -0.4106  0.1583 -0.3430
    1SOL    HW2 3390   1.889   4.338   1.545  1.1448 -0.3687  1.0198
    1SOL    HW3 3391   1.833   4.201   1.578 -0.6389  0.0764 -0.0885
    1SOL    MW4 3392   1.834   4.288   1.590 -0.2356  0.0782 -0.1296
    1SOL     OW 3393   2.041   4.377   1.435 -0.0201  0.1280 -0.3711
    1SOL    HW2 3394   2.107   4.325   1.480  0.2211  0.6934 -0.0641
    1SOL    HW3 3395   2.045   4.463   1.478 -1.6985 -0.1511  0.3867
    1SOL    MW4 3396   2.050   4.381   1.447 -0.2100  0.1659 -0.2308
    1SOL     OW 3397   2.493   4.616   1.572 -0.1449 -0.4140 -0.2905
    1SOL    HW2 3398   2.491   4.628   1.667 -0.2575 -0.5529 -0.2750
    1SOL    HW3 3399   2.417   4.665   1.541  0.2231  0.1144 -0.3643
    1SOL    MW4 3400   2.482   4.624   1.581 -0.1111 -0.3624 -0.2980
    1SOL     OW 3401   2.262   0.100   1.510  0.3955 -0.0823  0.0857
    1SOL    HW2 3402   2.178   0.056   1.527  1.4823 -1.9020  0.8284
    1SOL    HW3 3403   2.259   0.121   1.417 -1.2465  0.6623  0.2795
    1SOL    MW4 3404   2.250   0.097   1.500  0.3223 -0.2241  0.2091
    1SOL     OW 3405   2.242   0.387   1.578 -0.1362 -0.9217  0.3200
    1SOL    HW2 3406   2.252   0.389   1.673 -0.3497 -1.1147  0.3468
    1SOL    HW3 3407   2.249   0.294   1.555 -2.4062 -1.1286  0.3934
    1SOL    MW4 3408   2.244   0.375   1.587 -0.4637 -0.9745  0.3331
    1SOL     OW 3409   2.479   0.466   1.445 -0.2520  0.5162 -0.0190
    1SOL    HW2 3410   2.552   0.407   1.467  0.9060  1.5961 -0.8696
    1SOL    HW3 3411   2.404   0.429   1.491  0.7797 -0.7626  0.6921
    1SOL    MW4 3412   2.479   0.453   1.454  0.0367  0.4900 -0.0373
    1SOL     OW 3413   2.490   0.726   1.574 -0.2315 -0.2092  0.5624
    1SOL    HW2 3414   2.401   0.759   1.561  0.8987  1.9892 -2.1567
    1SOL    HW3 3415   2.486   0.635   1.546 -2.0881 -0.7670  2.5199
    1SOL    MW4 3416   2.478   0.718   1.569 -0.3273  0.0072  0.4619
    1SOL     OW 3417   2.234   0.846   1.531 -0.0296 -0.6309  0.2689
    1SOL    HW2 3418   2.234   0.939   1.552 -0.5351 -0.2095 -1.4710
    1SOL    HW3 3419   2.233   0.843   1.435  1.9048 -2.4291  0.2573
    1SOL    MW4 3420   2.234   0.858   1.521  0.1590 -0.8125  0.0378
    1SOL     OW 3421   2.262   1.107   1.580  0.4297 -0.0670  0.3251
    1SOL    HW2 3422   2.270   1.117   1.675  1.4640  0.4692  0.1828
    1SOL    HW3 3423   2.183   1.157   1.558  0.9969  0.9998  0.7097
    1SOL    MW4 3424   2.252   1.115   1.590  0.6411  0.1444  0.3570
    1SOL     OW 3425   2.464   1.260   1.466 -0.1088  0.1344  0.3161
    1SOL    HW2 3426   2.393   1.204   1.498  0.4999 -0.5138  0.5451
    1SOL    HW3 3427   2.462   1.250   1.371  1.3278 -1.9157  0.4799
    1SOL    MW4 3428   2.454   1.251   1.458  0.1612 -0.2216  0.3679
    1SOL     OW 3429   2.417   1.530   1.577 -0.4814 -0.0915 -0.3951
    1SOL    HW2 3430   2.492   1.582   1.547  0.1177 -0.0285  1.1578
    1SOL    HW3 3431   2.430   1.445   1.534  1.8347 -0.8668  1.6898
    1SOL    MW4 3432   2.429   1.525   1.567 -0.0968 -0.1855  0.0848
    1SOL     OW 3433   2.196   1.678   1.497 -0.5104  0.0249  0.0768
    1SOL    HW2 3434   2.273   1.633   1.530  0.5468  1.5948 -0.1849
    1SOL    HW3 3435   2.214   1.690   1.403 -1.4248 -0.3058 -0.1471
    1SOL    MW4 3436   2.208   1.674   1.489 -0.4916  0.1884  0.0128
    1SOL     OW 3437   2.244   1.958   1.618  0.2289  0.0789 -0.3638
    1SOL    HW2 3438   2.251   1.945   1.713 -1.2193  0.2762 -0.2195
    1SOL    HW3 3439   2.216   1.873   1.584  0.4798  0.0849 -0.5898
    1SOL    MW4 3440   2.242   1.945   1.626  0.0708  0.1056 -0.3747
    1SOL     OW 3441   2.455   2.094   1.523  0.2950  0.0098  0.1548
    1SOL    HW2 3442   2.375   2.055   1.560  0.8252 -1.3605 -0.1359
    1SOL    HW3 3443   2.440   2.096   1.429 -0.2213  1.6375  0.2574
    1SOL    MW4 3444   2.442   2.089   1.516  0.2968  0.0439  0.1301
    1SOL     OW 3445   2.453   2.362   1.588  0.8249 -0.2863 -0.7925
    1SOL    HW2 3446   2.457   2.361   1.683 -1.1089  0.5245 -0.6913
    1SOL    HW3 3447   2.461   2.269   1.563 -1.8303 -0.8592  0.3251
    1SOL    MW4 3448   2.455   2.349   1.597  0.2193 -0.2551 -0.6317
    1SOL     OW 3449   2.166   2.449   1.525 -0.1437  0.0097 -0.0465
    1SOL    HW2 3450   2.239   2.398   1.560  0.1252 -0.2345 -0.9634
    1SOL    HW3 3451   2.089   2.412   1.567 -0.0286 -1.6781 -1.2919
    1SOL    MW4 3452   2.166   2.438   1.535 -0.0932 -0.2453 -0.3318
    1SOL     OW 3453   2.243   2.721   1.573 -0.6685  0.1136  0.1748
    1SOL    HW2 3454   2.228   2.627   1.567  0.0088  0.0381 -0.4247
    1SOL    HW3 3455   2.159   2.761   1.546 -1.9026 -0.3071  3.2088
    1SOL    MW4 3456   2.230   2.714   1.568 -0.7420  0.0486  0.4959
    1SOL     OW 3457   2.483   2.840   1.512  0.3624  0.3136 -0.2032
    1SOL    HW2 3458   2.487   2.928   1.549  0.9760  0.1009  0.2463
    1SOL    HW3 3459   2.402   2.803   1.545 -1.4009  1.7612 -2.7664
    1SOL    MW4 3460   2.473   2.847   1.521  0.2105  0.4764 -0.4821
    1SOL     OW 3461   2.500   3.103   1.613 -0.4088  0.2596  0.1417
    1SOL    HW2 3462   2.563   3.164   1.575  0.2268 -0.7550 -0.4736
    1SOL    HW3 3463   2.419   3.120   1.565  0.4120 -1.0660 -1.7662
    1SOL    MW4 3464   2.498   3.113   1.602 -0.2167 -0.0491 -0.1913
    1SOL     OW 3465   2.235   3.160   1.526  0.2517 -0.2258 -0.5248
    1SOL    HW2 3466   2.229   3.247   1.565 -1.2464 -0.1784 -0.8368
    1SOL    HW3 3467   2.237   3.176   1.432  1.0847 -0.4768 -0.5505
    1SOL    MW4 3468   2.234   3.174   1.519  0.1640 -0.2527 -0.5693
    1SOL     OW 3469   2.242   3.429   1.589  0.6700  0.2681 -0.4728
    1SOL    HW2 3470   2.232   3.442   1.684  3.0524 -1.5044  0.0740
    1SOL    HW3 3471   2.323   3.473   1.567  1.9293 -2.2040 -1.0107
    1SOL    MW4 3472   2.251   3.436   1.599  1.1504 -0.2921 -0.4716
    1SOL     OW 3473   2.444   3.609   1.511  0.0724  0.2245  0.3587
    1SOL    HW2 3474   2.525   3.573   1.545 -1.1957 -1.1516  2.0096
    1SOL    HW3 3475   2.448   3.702   1.533  0.3020 -0.2157  2.2330
    1SOL    MW4 3476   2.455   3.616   1.518 -0.0646 -0.0150  0.8239
    1SOL     OW 3477   2.469   3.877   1.547 -0.0449 -0.0548  0.1418
    1SOL    HW2 3478   2.461   3.898   1.640 -0.3135 -0.4753  0.2136
    1SOL    HW3 3479   2.560   3.897   1.526 -0.1370  0.6040  0.3567
    1SOL    MW4 3480   2.480   3.883   1.557 -0.0927 -0.0234  0.1796
    1SOL     OW 3481   2.246   3.997   1.421 -0.0435 -0.0241 -0.0009
    1SOL    HW2 3482   2.325   3.961   1.461  0.1048  0.3650  0.0569
    1SOL    HW3 3483   2.254   3.975   1.329  1.2499  2.0012 -0.4019
    1SOL    MW4 3484   2.257   3.989   1.414  0.1466  0.2944 -0.0460
    1SOL     OW 3485   2.242   4.239   1.562 -0.1383 -0.0769 -0.3057
    1SOL    HW2 3486   2.320   4.279   1.524 -1.6189  1.8991 -1.3399
    1SOL    HW3 3487   2.229   4.159   1.511 -0.1833  0.8352 -1.7528
    1SOL    MW4 3488   2.251   4.234   1.550 -0.3397  0.3037 -0.6330
    1SOL     OW 3489   2.455   4.370   1.464 -0.1547 -0.0660 -0.2552
    1SOL    HW2 3490   2.478   4.460   1.488 -0.7602  0.1236 -0.3911
    1SOL    HW3 3491   2.445   4.372   1.369  0.3380 -0.3932 -0.3165
    1SOL    MW4 3492   2.457   4.382   1.455 -0.1698 -0.0849 -0.2813
    1SOL     OW 3493   2.936   4.644   1.597 -0.1587  0.0101 -0.1096
    1SOL    HW2 3494   2.937   4.659   1.692 -0.9664 -1.4953  0.1456
    1SOL    HW3 3495   2.869   4.703   1.564 -2.1573 -1.7614  0.6773
    1SOL    MW4 3496   2.928   4.654   1.606 -0.5291 -0.4220  0.0278
    1SOL     OW 3497   2.712   0.099   1.479  0.3013 -0.1774  0.2307
    1SOL    HW2 3498   2.700   0.186   1.518  0.6243  0.0721 -0.2259
    1SOL    HW3 3499   2.644   0.045   1.519 -0.4326  0.4938 -0.1093
    1SOL    MW4 3500   2.701   0.103   1.490  0.2472 -0.0560  0.1256
    1SOL     OW 3501   2.709   0.362   1.554 -0.0819  0.3119 -0.2413
    1SOL    HW2 3502   2.713   0.357   1.650  1.6421 -1.0956 -0.3524
    1SOL    HW3 3503   2.794   0.397   1.529 -0.1069 -0.3609 -1.3013
    1SOL    MW4 3504   2.721   0.366   1.563  0.1426  0.0375 -0.3957
    1SOL     OW 3505   2.929   0.505   1.474  0.0528 -0.1400 -0.2542
    1SOL    HW2 3506   2.942   0.592   1.512 -0.6251 -0.5300  0.8690
    1SOL    HW3 3507   2.896   0.523   1.386 -1.6087  0.7299  0.5201
    1SOL    MW4 3508   2.927   0.519   1.467 -0.2561 -0.0767 -0.0038
    1SOL     OW 3509   2.929   0.779   1.560 -0.7322 -0.2467  0.2106
    1SOL    HW2 3510   2.925   0.788   1.655 -1.4284  0.1833  0.1393
    1SOL    HW3 3511   2.844   0.810   1.529 -0.8772 -1.3361 -0.4839
    1SOL    MW4 3512   2.918   0.784   1.568 -0.8433 -0.3337  0.1096
    1SOL     OW 3513   2.695   0.901   1.506  0.3310  0.2687 -0.4730
    1SOL    HW2 3514   2.625   0.852   1.549  0.0257  1.4425  0.3923
    1SOL    HW3 3515   2.670   0.902   1.414  0.1879 -0.9295 -0.4589
    1SOL    MW4 3516   2.682   0.895   1.500  0.2716  0.2655 -0.3572
    1SOL     OW 3517   2.713   1.184   1.578  0.3824 -0.3773 -0.2988
    1SOL    HW2 3518   2.714   1.089   1.567  0.7833 -0.2320 -1.6310
    1SOL    HW3 3519   2.627   1.210   1.544  0.7044 -0.1522 -0.9351
    1SOL    MW4 3520   2.702   1.175   1.572  0.4776 -0.3285 -0.5585
    1SOL     OW 3521   2.918   1.309   1.446 -0.0812  0.2360 -0.3729
    1SOL    HW2 3522   2.996   1.288   1.498 -0.7663 -0.1205  0.5340
    1SOL    HW3 3523   2.848   1.256   1.486 -0.9805  1.2455 -0.5898
    1SOL    MW4 3524   2.919   1.299   1.458 -0.2899  0.3222 -0.2818
    1SOL     OW 3525   2.917   1.550   1.569 -0.2500  0.2811 -0.5762
    1SOL    HW2 3526   2.834   1.589   1.542 -0.8391 -0.4572  0.1670
    1SOL    HW3 3527   2.922   1.467   1.522  0.6358  0.8615 -1.5404
    1SOL    MW4 3528   2.907   1.545   1.559 -0.2108  0.2601 -0.6053
    1SOL     OW 3529   2.654   1.663   1.506 -0.2371  0.2135 -0.0036
    1SOL    HW2 3530   2.656   1.749   1.548  1.6604  0.0137  0.3612
    1SOL    HW3 3531   2.663   1.682   1.412 -1.5770  0.4975 -0.0825
    1SOL    MW4 3532   2.656   1.677   1.499 -0.1636  0.2246  0.0341
    1SOL     OW 3533   2.679   1.924   1.616  0.4463  0.1561  0.3713
    1SOL    HW2 3534   2.685   1.932   1.712 -2.0618  0.2724  0.5592
    1SOL    HW3 3535   2.604   1.978   1.593 -0.3807 -1.6939 -1.4055
    1SOL    MW4 3536   2.670   1.932   1.626  0.0062 -0.0727  0.1618
    1SOL     OW 3537   2.933   2.034   1.499 -0.0747 -0.4814 -0.0145
    1SOL    HW2 3538   2.939   2.125   1.531 -0.7552 -0.1749 -0.7598
    1SOL    HW3 3539   2.857   1.998   1.544 -0.4148 -0.3721 -0.5104
    1SOL    MW4 3540   2.924   2.041   1.509 -0.2098 -0.4263 -0.1783
    1SOL     OW 3541   2.932   2.306   1.583 -0.2662 -0.3650 -0.1406
    1SOL    HW2 3542   2.917   2.310   1.677 -0.6216 -0.4445 -0.1919
    1SOL    HW3 3543   2.869   2.368   1.546  1.3629  1.3361 -0.1734
    1SOL    MW4 3544   2.922   2.315   1.590 -0.0980 -0.1509 -0.1518
    1SOL     OW 3545   2.715   2.454   1.485  0.4465 -0.5609  0.0209
    1SOL    HW2 3546   2.713   2.538   1.531 -0.3682 -0.4241 -0.2665
    1SOL    HW3 3547   2.634   2.410   1.511  0.4299 -0.8771 -0.5618
    1SOL    MW4 3548   2.704   2.459   1.495  0.3366 -0.5846 -0.0941
    1SOL     OW 3549   2.721   2.723   1.610 -0.1138  0.1661  0.3132
    1SOL    HW2 3550   2.805   2.762   1.584 -0.5636  0.0432 -1.3664
    1SOL    HW3 3551   2.655   2.775   1.565 -0.8388 -1.0171 -0.0066
    1SOL    MW4 3552   2.724   2.735   1.601 -0.2687 -0.0064  0.0495
    1SOL     OW 3553   2.953   2.852   1.482  0.7073  0.0674  0.2358
    1SOL    HW2 3554   3.028   2.807   1.521  0.8922  0.2951  0.1437
    1SOL    HW3 3555   2.950   2.936   1.526  0.0798 -0.2123  0.7398
    1SOL    MW4 3556   2.962   2.857   1.493  0.6490  0.0608  0.2900
    1SOL     OW 3557   2.944   3.098   1.593 -0.1880 -0.0916  0.3863
    1SOL    HW2 3558   2.938   3.117   1.687 -0.1645 -0.4451  0.4598
    1SOL    HW3 3559   3.015   3.154   1.562  0.1453 -0.3459  0.6806
    1SOL    MW4 3560   2.953   3.108   1.602 -0.1407 -0.1719  0.4349
    1SOL     OW 3561   2.721   3.246   1.500  0.3195 -0.3134  0.0811
    1SOL    HW2 3562   2.793   3.193   1.534  0.9545 -0.1846 -1.0366
    1SOL    HW3 3563   2.717   3.225   1.407 -1.2978 -0.5486  0.1908
    1SOL    MW4 3564   2.730   3.236   1.492  0.1900 -0.3276 -0.0520
    1SOL     OW 3565   2.698   3.506   1.600  0.2041  0.3813  0.5664
    1SOL    HW2 3566   2.690   3.467   1.688  0.5210  0.5177  0.6535
    1SOL    HW3 3567   2.703   3.431   1.541  0.4894  0.2914  0.7071
    1SOL    MW4 3568   2.698   3.491   1.604  0.2835  0.3874  0.5963
    1SOL     OW 3569   2.931   3.616   1.462 -0.1632 -0.0282  0.0966
    1SOL    HW2 3570   2.839   3.606   1.484 -0.1641 -2.0926 -0.8019
    1SOL    HW3 3571   2.934   3.620   1.367  0.6315  0.6746  0.1377
    1SOL    MW4 3572   2.919   3.615   1.453 -0.0584 -0.2081 -0.0165
    1SOL     OW 3573   2.952   3.847   1.614  0.1451 -0.3696  0.2015
    1SOL    HW2 3574   2.863   3.880   1.603 -0.1965 -1.0495  0.8759
    1SOL    HW3 3575   2.953   3.765   1.564  0.7113  0.1712 -0.6912
    1SOL    MW4 3576   2.940   3.841   1.606  0.1745 -0.3881  0.1727
    1SOL     OW 3577   2.734   3.973   1.518  0.3751  0.4983 -0.0882
    1SOL    HW2 3578   2.722   4.063   1.547 -1.3458  0.3721 -0.3693
    1SOL    HW3 3579   2.749   3.979   1.424 -1.0181  0.3994 -0.3177
    1SOL    MW4 3580   2.735   3.986   1.509 -0.0355  0.4685 -0.1557
    1SOL     OW 3581   2.687   4.242   1.584 -0.5566  0.3985 -0.1551
    1SOL    HW2 3582   2.764   4.295   1.564 -0.3311 -0.2300 -0.9769
    1SOL    HW3 3583   2.614   4.291   1.546 -0.1962 -0.5184 -2.0799
    1SOL    MW4 3584   2.687   4.256   1.576 -0.4792  0.1945 -0.5176
    1SOL     OW 3585   2.900   4.397   1.516  0.0195  0.0675  0.4496
    1SOL    HW2 3586   2.911   4.484   1.553  1.0187 -0.3021  1.0423
    1SOL    HW3 3587   2.887   4.413   1.422  0.4729  0.8377  0.5130
    1SOL    MW4 3588   2.900   4.411   1.508  0.2112  0.1202  0.5362
    1SOL     OW 3589   3.387   4.638   1.608  0.1594 -0.1022 -0.8451
    1SOL    HW2 3590   3.460   4.692   1.579  0.6526 -0.9383 -1.1631
    1SOL    HW3 3591   3.403   4.552   1.570 -0.0268 -0.7824  0.5737
    1SOL    MW4 3592   3.399   4.634   1.599  0.2000 -0.3018 -0.7000
    1SOL     OW 3593   3.164   0.086   1.490  0.2404 -0.4603  0.1948
    1SOL    HW2 3594   3.239   0.048   1.534 -0.1033  0.7240  1.8077
    1SOL    HW3 3595   3.088   0.040   1.528  0.0583 -0.9001 -0.6667
    1SOL    MW4 3596   3.164   0.075   1.501  0.1709 -0.3621  0.2939
    1SOL     OW 3597   3.142   0.363   1.568  0.0278 -0.0061  0.0174
    1SOL    HW2 3598   3.150   0.273   1.537 -0.1870  0.1359 -0.4491
    1SOL    HW3 3599   3.065   0.398   1.523 -1.3134 -0.3290  1.9948
    1SOL    MW4 3600   3.133   0.356   1.558 -0.1774 -0.0300  0.2166
    1SOL     OW 3601   3.342   0.526   1.495  0.0812 -0.2221  0.3113
    1SOL    HW2 3602   3.271   0.467   1.520  1.2439 -2.0821 -0.6837
    1SOL    HW3 3603   3.335   0.532   1.400  0.1273  1.0674  0.3835
    1SOL    MW4 3604   3.331   0.519   1.486  0.2406 -0.2974  0.1895
    1SOL     OW 3605   3.339   0.805   1.572  0.4272 -0.0983 -0.1182
    1SOL    HW2 3606   3.342   0.807   1.668  0.4435  0.6127 -0.1286
    1SOL    HW3 3607   3.330   0.713   1.550 -0.9487 -0.1461  0.6144
    1SOL    MW4 3608   3.338   0.793   1.582  0.2477 -0.0108 -0.0230
    1SOL     OW 3609   3.134   0.954   1.461 -0.0320 -0.0471 -0.0011
    1SOL    HW2 3610   3.211   0.906   1.493  0.4373 -0.2726 -1.3970
    1SOL    HW3 3611   3.059   0.903   1.491  0.3599  0.2807  1.5453
    1SOL    MW4 3612   3.135   0.941   1.469  0.0818 -0.0336  0.0187
    1SOL     OW 3613   3.179   1.206   1.588 -0.0210 -0.2472 -0.2161
    1SOL    HW2 3614   3.162   1.180   1.678 -0.5696 -0.2967 -0.3347
    1SOL    HW3 3615   3.165   1.127   1.536 -1.1828  0.1494 -0.5164
    1SOL    MW4 3616   3.175   1.192   1.593 -0.2465 -0.2015 -0.2712
    1SOL     OW 3617   3.410   1.330   1.474  0.0978 -0.1789  0.3158
    1SOL    HW2 3618   3.480   1.286   1.522 -0.1890 -1.1632 -0.1739
    1SOL    HW3 3619   3.330   1.291   1.507 -0.1571 -0.0624 -0.1625
    1SOL    MW4 3620   3.409   1.319   1.485  0.0265 -0.2934  0.1881
    1SOL     OW 3621   3.366   1.584   1.564 -0.7147 -0.5080  0.1085
    1SOL    HW2 3622   3.372   1.569   1.659  2.9645 -1.2577 -0.1530
    1SOL    HW3 3623   3.373   1.497   1.526  1.0914  0.0481 -0.8987
    1SOL    MW4 3624   3.368   1.571   1.572  0.0091 -0.5333 -0.0590
    1SOL     OW 3625   3.138   1.691   1.486  0.9251 -0.2558 -0.3141
    1SOL    HW2 3626   3.222   1.654   1.512  1.2440  0.6461 -0.0249
    1SOL    HW3 3627   3.073   1.640   1.533  1.3107 -0.9625 -0.5399
    1SOL    MW4 3628   3.140   1.680   1.496  1.0183 -0.2298 -0.3057
    1SOL     OW 3629   3.164   1.936   1.599  0.2483  0.3646  0.0324
    1SOL    HW2 3630   3.165   1.847   1.564  0.6280 -0.0691  1.1289
    1SOL    HW3 3631   3.082   1.973   1.567  0.5984 -0.0029 -1.3337
    1SOL    MW4 3632   3.153   1.929   1.590  0.3445  0.2589 -0.0032
    1SOL     OW 3633   3.396   2.056   1.485 -0.0973  0.2096 -0.1557
    1SOL    HW2 3634   3.327   1.998   1.518  1.0142 -1.0195  0.0220
    1SOL    HW3 3635   3.391   2.048   1.390  0.4087 -0.6027 -0.1180
    1SOL    MW4 3636   3.386   2.048   1.477  0.1161 -0.0598 -0.1273
    1SOL     OW 3637   3.370   2.312   1.587  0.3271 -0.2321 -0.3213
    1SOL    HW2 3638   3.448   2.361   1.563 -0.1137  0.5010 -0.2554
    1SOL    HW3 3639   3.386   2.224   1.553  1.1473 -0.0687 -0.3736
    1SOL    MW4 3640   3.382   2.307   1.579  0.3772 -0.1137 -0.3195
    1SOL     OW 3641   3.151   2.432   1.463 -0.2555  0.7086  0.6421
    1SOL    HW2 3642   3.228   2.396   1.508 -0.1533 -0.2099 -0.2443
    1SOL    HW3 3643   3.077   2.381   1.497 -0.3693  1.0221  0.8679
    1SOL    MW4 3644   3.151   2.421   1.473 -0.2568  0.6292  0.5549
    1SOL     OW 3645   3.158   2.683   1.574  0.0868 -0.3120  0.0962
    1SOL    HW2 3646   3.240   2.722   1.545  0.9019 -2.0433  0.0625
    1SOL    HW3 3647   3.155   2.598   1.531 -1.6702 -0.3316  0.2096
    1SOL    MW4 3648   3.168   2.677   1.564 -0.0374 -0.5429  0.1068
    1SOL     OW 3649   3.365   2.810   1.464 -0.0965  0.4189  0.0145
    1SOL    HW2 3650   3.372   2.896   1.505  2.6388 -0.0534  0.6037
    1SOL    HW3 3651   3.387   2.826   1.372  2.3144  0.0574  0.5082
    1SOL    MW4 3652   3.369   2.823   1.457  0.5827  0.3090  0.1574
    1SOL     OW 3653   3.387   3.052   1.596  0.5022 -0.1179  0.8298
    1SOL    HW2 3654   3.364   3.050   1.689  1.6134 -0.6630  1.1019
    1SOL    HW3 3655   3.452   3.122   1.588 -2.3297  2.5034 -0.2131
    1SOL    MW4 3656   3.392   3.061   1.607  0.2751  0.1562  0.7280
    1SOL     OW 3657   3.173   3.222   1.493 -0.0323 -0.1499 -0.1789
    1SOL    HW2 3658   3.245   3.162   1.514 -0.3742 -0.5423 -0.1371
    1SOL    HW3 3659   3.168   3.221   1.398 -0.4972 -0.7283 -0.1512
    1SOL    MW4 3660   3.182   3.214   1.483 -0.1388 -0.2778 -0.1699
    1SOL     OW 3661   3.154   3.481   1.597 -0.2014 -0.0151 -0.1152
    1SOL    HW2 3662   3.148   3.391   1.566  0.4618 -0.0267 -0.2289
    1SOL    HW3 3663   3.085   3.527   1.550 -1.6911 -0.8048  1.2314
    1SOL    MW4 3664   3.144   3.475   1.587 -0.3104 -0.1209  0.0477
    1SOL     OW 3665   3.346   3.610   1.462  0.0629  0.5363  0.6470
    1SOL    HW2 3666   3.427   3.571   1.495  0.3157  0.1137 -0.4470
    1SOL    HW3 3667   3.277   3.567   1.512  0.3185 -1.5182 -0.6601
    1SOL    MW4 3668   3.348   3.599   1.473  0.1297  0.2096  0.3303
    1SOL     OW 3669   3.329   3.861   1.582  0.1114 -0.1523  0.0132
    1SOL    HW2 3670   3.249   3.896   1.542  1.2557  0.9751 -1.3222
    1SOL    HW3 3671   3.333   3.770   1.551 -0.7998 -0.3128  0.3405
    1SOL    MW4 3672   3.319   3.854   1.573  0.1423 -0.0246 -0.1197
    1SOL     OW 3673   3.120   3.982   1.453  0.1806 -0.6618 -0.1542
    1SOL    HW2 3674   3.129   4.070   1.491 -0.4493 -0.8889  0.5421
    1SOL    HW3 3675   3.064   3.936   1.515 -0.4719 -1.1918 -1.1356
    1SOL    MW4 3676   3.114   3.988   1.467  0.0112 -0.7615 -0.1918
    1SOL     OW 3677   3.141   4.245   1.574  0.0326 -0.0546  0.0167
    1SOL    HW2 3678   3.149   4.241   1.669 -1.9148 -1.0504  0.1652
    1SOL    HW3 3679   3.066   4.302   1.559 -0.5546 -1.0380 -0.8699
    1SOL    MW4 3680   3.132   4.252   1.584 -0.3021 -0.3152 -0.0807
    1SOL     OW 3681   3.387   4.375   1.517 -0.5545  0.2675 -0.2171
    1SOL    HW2 3682   3.306   4.340   1.556  0.0511 -1.5310 -0.5320
    1SOL    HW3 3683   3.383   4.348   1.425  0.4119  0.1515 -0.2296
    1SOL    MW4 3684   3.375   4.367   1.510 -0.3471  0.0153 -0.2605
    1SOL     OW 3685   3.801   0.004   1.626 -0.1096  0.2191 -0.1999
    1SOL    HW2 3686   3.814   0.007   1.720 -0.3161  1.2960 -0.1948
    1SOL    HW3 3687   3.883   0.037   1.589 -0.0500 -0.1447 -0.3980
    1SOL    MW4 3688   3.814   0.009   1.633 -0.1292  0.3133 -0.2253
    1SOL     OW 3689   3.585   0.129   1.497 -0.1090 -0.2594 -0.7600
    1SOL    HW2 3690   3.665   0.096   1.539 -0.6689  0.3152  0.8086
    1SOL    HW3 3691   3.592   0.101   1.406  1.6530 -0.6383 -0.5285
    1SOL    MW4 3692   3.597   0.121   1.491  0.0496 -0.2336 -0.5226
    1SOL     OW 3693   3.569   0.384   1.604 -0.3589 -0.3350  0.4306
    1SOL    HW2 3694   3.547   0.293   1.582 -0.7168  0.2111 -1.6684
    1SOL    HW3 3695   3.490   0.434   1.579  0.0395  0.6190  1.0379
    1SOL    MW4 3696   3.555   0.379   1.597 -0.3536 -0.1371  0.2338
    1SOL     OW 3697   3.802   0.552   1.522  0.1988 -0.0089 -0.3668
    1SOL    HW2 3698   3.729   0.500   1.554 -1.2763  2.8231  1.1455
    1SOL    HW3 3699   3.794   0.549   1.426 -1.2229 -0.6547 -0.2397
    1SOL    MW4 3700   3.792   0.545   1.513 -0.1836  0.2795 -0.1504
    1SOL     OW 3701   3.806   0.818   1.618 -0.1225 -0.0424 -0.3288
    1SOL    HW2 3702   3.730   0.862   1.581 -1.2957 -0.7062  1.2713
    1SOL    HW3 3703   3.802   0.729   1.584 -1.1777 -0.6407  1.3394
    1SOL    MW4 3704   3.796   0.812   1.608 -0.4165 -0.2089  0.1023
    1SOL     OW 3705   3.578   0.938   1.494  0.0337  0.1357 -0.0227
    1SOL    HW2 3706   3.493   0.900   1.518 -0.5008  0.9329 -0.6062
    1SOL    HW3 3707   3.599   0.897   1.410 -0.0700  0.3808 -0.1705
    1SOL    MW4 3708   3.569   0.928   1.486 -0.0503  0.2733 -0.1192
    1SOL     OW 3709   3.617   1.190   1.608  0.3612 -0.4167  0.9501
    1SOL    HW2 3710   3.707   1.211   1.581 -0.2449  0.0383 -0.8039
    1SOL    HW3 3711   3.601   1.103   1.569  0.2569 -0.7734  1.7852
    1SOL    MW4 3712   3.627   1.181   1.599  0.2677 -0.4038  0.8287
    1SOL     OW 3713   3.841   1.283   1.507  0.1166 -0.2024  0.4787
    1SOL    HW2 3714   3.917   1.243   1.549  0.7468 -0.7506 -1.1510
    1SOL    HW3 3715   3.838   1.372   1.542  0.7873 -0.5608  1.4688
    1SOL    MW4 3716   3.850   1.289   1.517  0.2885 -0.3220  0.3942
    1SOL     OW 3717   3.828   1.577   1.588 -0.3055 -0.2886  0.0001
    1SOL    HW2 3718   3.803   1.554   1.678  1.4291 -0.8072  0.3812
    1SOL    HW3 3719   3.753   1.625   1.553 -1.2735 -0.6842  1.4977
    1SOL    MW4 3720   3.815   1.580   1.595 -0.2043 -0.4092  0.2478
    1SOL     OW 3721   3.612   1.704   1.509  0.1685  0.6505  0.1080
    1SOL    HW2 3722   3.521   1.677   1.523  0.3370 -0.3519 -0.6213
    1SOL    HW3 3723   3.624   1.698   1.414  1.7179 -1.6961  0.4106
    1SOL    MW4 3724   3.602   1.700   1.499  0.3951  0.2087  0.0517
    1SOL     OW 3725   3.614   1.949   1.605  0.2913  0.1151  0.1845
    1SOL    HW2 3726   3.602   1.859   1.575  0.3973 -0.1078  0.7893
    1SOL    HW3 3727   3.545   1.999   1.562 -1.4676 -0.7371  1.9428
    1SOL    MW4 3728   3.604   1.943   1.595  0.0732 -0.0268  0.4963
    1SOL     OW 3729   3.861   2.042   1.509 -0.2912  0.2837  0.0823
    1SOL    HW2 3730   3.846   2.129   1.546 -0.1758  0.4483 -0.2486
    1SOL    HW3 3731   3.791   1.988   1.545  0.9114 -0.0293  2.0322
    1SOL    MW4 3732   3.850   2.047   1.518 -0.1173  0.2642  0.2960
    1SOL     OW 3733   3.836   2.291   1.622  0.3601  0.1505 -0.0331
    1SOL    HW2 3734   3.830   2.297   1.717 -0.1378 -0.9881  0.0234
    1SOL    HW3 3735   3.912   2.344   1.599  0.0939  0.9522  0.9369
    1SOL    MW4 3736   3.845   2.299   1.631  0.2592  0.1061  0.1023
    1SOL     OW 3737   3.617   2.440   1.488 -0.1434  0.1995 -0.1122
    1SOL    HW2 3738   3.617   2.525   1.532 -0.0783  0.4197 -0.5339
    1SOL    HW3 3739   3.688   2.391   1.530  0.1033  0.5100 -0.1665
    1SOL    MW4 3740   3.626   2.444   1.499 -0.1023  0.2694 -0.1749
    1SOL     OW 3741   3.578   2.682   1.618 -0.0599  0.0648  0.9387
    1SOL    HW2 3742   3.572   2.681   1.714 -0.4460 -1.1095  0.9084
    1SOL    HW3 3743   3.500   2.730   1.590 -0.4271 -0.3752  1.1879
    1SOL    MW4 3744   3.567   2.688   1.627 -0.1593 -0.1483  0.9676
    1SOL     OW 3745   3.789   2.832   1.518 -0.4582 -0.0289  0.0608
    1SOL    HW2 3746   3.869   2.789   1.547 -0.3513  1.6040  2.3166
    1SOL    HW3 3747   3.719   2.784   1.564 -0.6394 -0.3941 -0.6008
    1SOL    MW4 3748   3.790   2.820   1.528 -0.4678  0.1383  0.2712
    1SOL     OW 3749   3.805   3.101   1.568 -0.1935  0.1622  0.4796
    1SOL    HW2 3750   3.880   3.148   1.530 -0.6241 -0.0180 -0.6030
    1SOL    HW3 3751   3.824   3.009   1.554  0.4991 -0.0035  2.3294
    1SOL    MW4 3752   3.818   3.095   1.561 -0.1590  0.1163  0.5809
    1SOL     OW 3753   3.579   3.235   1.507 -0.4314  0.1335 -0.3253
    1SOL    HW2 3754   3.654   3.179   1.526 -0.1551 -0.3315 -2.7256
    1SOL    HW3 3755   3.574   3.238   1.412 -2.6064  1.3220 -0.2054
    1SOL    MW4 3756   3.589   3.228   1.497 -0.6819  0.2291 -0.6263
    1SOL     OW 3757   3.586   3.511   1.550 -0.1850  0.0738  0.2703
    1SOL    HW2 3758   3.666   3.546   1.511  0.9452 -0.3050  2.1835
    1SOL    HW3 3759   3.590   3.417   1.534 -0.0364  0.0008  0.7255
    1SOL    MW4 3760   3.597   3.503   1.543 -0.0162  0.0141  0.5828
    1SOL     OW 3761   3.827   3.619   1.488 -0.2019 -0.3712 -0.0087
    1SOL    HW2 3762   3.902   3.577   1.531  0.7732  0.7211 -0.5967
    1SOL    HW3 3763   3.808   3.695   1.543  0.5660  0.6042 -1.0575
    1SOL    MW4 3764   3.834   3.624   1.501  0.0284 -0.0982 -0.2247
    1SOL     OW 3765   3.789   3.854   1.629 -0.8169  0.1669  0.1129
    1SOL    HW2 3766   3.858   3.913   1.598  0.2055 -0.9278  0.2770
    1SOL    HW3 3767   3.708   3.896   1.601 -0.0660  1.2042 -0.5576
    1SOL    MW4 3768   3.788   3.867   1.621 -0.5827  0.1590  0.0460
    1SOL     OW 3769   3.571   3.979   1.486  0.3306 -0.2529 -0.0637
    1SOL    HW2 3770   3.586   4.060   1.535  1.8394 -1.7672  2.0351
    1SOL    HW3 3771   3.485   3.950   1.516  0.6962 -0.5057  0.7667
    1SOL    MW4 3772   3.561   3.986   1.496  0.5779 -0.4859  0.3228
    1SOL     OW 3773   3.599   4.227   1.624 -0.0612 -0.0289 -0.5198
    1SOL    HW2 3774   3.605   4.230   1.720 -0.3540 -0.6967 -0.4818
    1SOL    HW3 3775   3.523   4.281   1.603  0.2098  0.4110 -0.4062
    1SOL    MW4 3776   3.590   4.235   1.634 -0.0641 -0.0591 -0.5000
    1SOL     OW 3777   3.831   4.398   1.540 -0.3458 -0.1222 -0.8672
    1SOL    HW2 3778   3.754   4.367   1.588 -1.5121  2.6496 -0.8027
    1SOL    HW3 3779   3.837   4.491   1.563  2.0307  0.0962 -2.2216
    1SOL    MW4 3780   3.821   4.406   1.550 -0.1862  0.2723 -1.0375
    1SOL     OW 3781   4.244   0.007   1.618 -0.3853  0.5218 -0.0438
    1SOL    HW2 3782   4.238  -0.015   1.710 -1.3056 -0.8201 -0.4094
    1SOL    HW3 3783   4.233  -0.076   1.572  0.4227  1.1223 -1.3545
    1SOL    MW4 3784   4.242  -0.007   1.624 -0.4001  0.4244 -0.2648
    1SOL     OW 3785   4.009   0.119   1.494 -0.1936  0.5030  0.5160
    1SOL    HW2 3786   4.006   0.213   1.513  0.4844  0.7093 -0.3827
    1SOL    HW3 3787   4.091   0.090   1.533 -0.4089  0.2811  0.8021
    1SOL    MW4 3788   4.019   0.128   1.502 -0.1326  0.5009  0.4351
    1SOL     OW 3789   4.020   0.389   1.562  0.1552  0.2224 -0.5101
    1SOL    HW2 3790   4.012   0.381   1.657  1.4969  0.3764 -0.3705
    1SOL    HW3 3791   3.947   0.444   1.536 -0.1377  0.2980  0.4512
    1SOL    MW4 3792   4.009   0.395   1.571  0.2937  0.2527 -0.3649
    1SOL     OW 3793   4.260   0.523   1.491 -0.0319 -0.4434  0.1255
    1SOL    HW2 3794   4.182   0.478   1.521  0.3058 -0.3374  1.1714
    1SOL    HW3 3795   4.332   0.465   1.517  0.3316  0.1977  0.5520
    1SOL    MW4 3796   4.260   0.509   1.498  0.0606 -0.3448  0.3198
    1SOL     OW 3797   4.261   0.757   1.644  0.1709  0.2786  0.4645
    1SOL    HW2 3798   4.255   0.665   1.616  2.1242 -0.0236  0.9438
    1SOL    HW3 3799   4.334   0.792   1.593  1.5877  0.6454  2.7140
    1SOL    MW4 3800   4.270   0.749   1.633  0.6151  0.2871  0.8245
    1SOL     OW 3801   4.054   0.881   1.498  0.0292  0.1526  0.0668
    1SOL    HW2 3802   4.120   0.837   1.552 -1.5534 -1.7066  0.5875
    1SOL    HW3 3803   3.971   0.860   1.541 -1.0121  1.1914 -1.3870
    1SOL    MW4 3804   4.052   0.872   1.511 -0.3171  0.0444 -0.0563
    1SOL     OW 3805   4.074   1.138   1.607 -0.3249  0.3053  0.1118
    1SOL    HW2 3806   4.058   1.142   1.701  1.2496  0.4436  0.3928
    1SOL    HW3 3807   4.070   1.045   1.585 -0.0382  0.2105  0.4484
    1SOL    MW4 3808   4.072   1.127   1.617 -0.0796  0.3110  0.1932
    1SOL     OW 3809   4.298   1.257   1.484  0.2346  0.1907  0.3015
    1SOL    HW2 3810   4.226   1.214   1.531  0.0884  1.2915  1.0890
    1SOL    HW3 3811   4.377   1.223   1.525  0.1860 -1.0499 -0.5884
    1SOL    MW4 3812   4.299   1.247   1.496  0.2089  0.1723  0.2880
    1SOL     OW 3813   4.281   1.494   1.611 -0.2861 -0.4286 -0.4480
    1SOL    HW2 3814   4.286   1.407   1.570  0.7982 -1.1551  1.1921
    1SOL    HW3 3815   4.348   1.545   1.565  0.4306 -1.0298 -0.0745
    1SOL    MW4 3816   4.290   1.489   1.599 -0.0486 -0.6038 -0.1824
    1SOL     OW 3817   4.068   1.644   1.489 -0.1698  0.3846  0.4591
    1SOL    HW2 3818   4.139   1.584   1.512  0.2262  1.1777  1.3459
    1SOL    HW3 3819   3.990   1.605   1.529 -0.0647  0.0277  0.3207
    1SOL    MW4 3820   4.067   1.631   1.497 -0.1035  0.4421  0.5579
    1SOL     OW 3821   4.079   1.889   1.618 -0.0586  0.4600 -0.2423
    1SOL    HW2 3822   4.087   1.812   1.562 -1.7235  0.5464 -0.6084
    1SOL    HW3 3823   4.015   1.944   1.574  0.9886  1.9911  0.1094
    1SOL    MW4 3824   4.072   1.886   1.605 -0.1397  0.6735 -0.2443
    1SOL     OW 3825   4.296   2.045   1.527 -0.1386 -0.2052 -0.3012
    1SOL    HW2 3826   4.221   2.002   1.569 -0.2096  0.3356  0.1307
    1SOL    HW3 3827   4.279   2.036   1.434 -0.6215 -0.2981 -0.2090
    1SOL    MW4 3828   4.284   2.038   1.521 -0.2112 -0.1459 -0.2320
    1SOL     OW 3829   4.286   2.311   1.609 -0.3684 -0.1851  0.2667
    1SOL    HW2 3830   4.286   2.301   1.704  1.7298  0.3203  0.3478
    1SOL    HW3 3831   4.305   2.223   1.575 -1.4666 -0.4377  0.2925
    1SOL    MW4 3832   4.288   2.298   1.617 -0.2365 -0.1519  0.2809
    1SOL     OW 3833   4.057   2.421   1.506  0.2828  0.6431 -0.0977
    1SOL    HW2 3834   4.055   2.511   1.539  2.1298  0.7276 -0.1572
    1SOL    HW3 3835   4.130   2.380   1.553 -1.1469 -1.1296  0.6487
    1SOL    MW4 3836   4.067   2.427   1.517  0.3381  0.4203 -0.0072
    1SOL     OW 3837   4.031   2.709   1.576 -0.1102  0.1470  0.3397
    1SOL    HW2 3838   4.061   2.735   1.663  0.2880  2.4413 -0.4710
    1SOL    HW3 3839   4.096   2.745   1.516 -0.7225 -0.8794 -0.9625
    1SOL    MW4 3840   4.044   2.717   1.579 -0.1388  0.3140  0.0608
    1SOL     OW 3841   4.270   2.856   1.503 -0.6253  0.0135 -0.3441
    1SOL    HW2 3842   4.270   2.946   1.536 -0.2062 -0.0151 -0.2677
    1SOL    HW3 3843   4.314   2.862   1.418 -0.5977 -0.1175 -0.3381
    1SOL    MW4 3844   4.276   2.869   1.496 -0.5660 -0.0074 -0.3332
    1SOL     OW 3845   4.259   3.116   1.580 -0.1850 -0.7122 -0.5778
    1SOL    HW2 3846   4.250   3.106   1.675  0.2364  3.4059 -0.0227
    1SOL    HW3 3847   4.346   3.155   1.568  0.4550 -2.7434 -2.8225
    1SOL    MW4 3848   4.269   3.120   1.591 -0.0448 -0.4368 -0.8008
    1SOL     OW 3849   4.033   3.225   1.458  0.3232  0.4376  0.0736
    1SOL    HW2 3850   4.040   3.312   1.497  1.1490  0.3508  0.1396
    1SOL    HW3 3851   4.112   3.179   1.489 -0.0386 -0.2854 -0.0681
    1SOL    MW4 3852   4.045   3.230   1.468  0.3843  0.3307  0.0637
    1SOL     OW 3853   4.044   3.473   1.563 -0.5335 -0.2257  0.3003
    1SOL    HW2 3854   4.040   3.472   1.659 -0.5635  0.9015  0.3167
    1SOL    HW3 3855   4.134   3.498   1.543  0.2073 -2.9484  0.0067
    1SOL    MW4 3856   4.056   3.476   1.573 -0.4396 -0.4363  0.2638
    1SOL     OW 3857   4.263   3.601   1.493  0.5283  0.4808 -0.0584
    1SOL    HW2 3858   4.257   3.693   1.519 -1.5043  0.7427 -1.2845
    1SOL    HW3 3859   4.274   3.604   1.398 -1.3309 -0.5537 -0.3247
    1SOL    MW4 3860   4.263   3.613   1.484  0.0143  0.3791 -0.2552
    1SOL     OW 3861   4.255   3.851   1.603 -0.4657  0.2330  0.0373
    1SOL    HW2 3862   4.171   3.892   1.582 -0.5674 -0.2241 -0.4570
    1SOL    HW3 3863   4.321   3.911   1.568 -0.5797  0.6405  0.5112
    1SOL    MW4 3864   4.252   3.864   1.596 -0.4940  0.2260  0.0347
    1SOL     OW 3865   4.025   3.983   1.555 -0.3436  0.1644 -0.3249
    1SOL    HW2 3866   4.052   4.073   1.576 -1.1307  0.5789 -1.0531
    1SOL    HW3 3867   4.034   3.977   1.460  2.2668 -1.3987 -0.0208
    1SOL    MW4 3868   4.030   3.994   1.546 -0.1030  0.0129 -0.3810
    1SOL     OW 3869   4.045   4.257   1.619 -0.1005  0.7130 -0.3796
    1SOL    HW2 3870   4.044   4.246   1.714  0.1842 -1.8860 -0.6502
    1SOL    HW3 3871   3.965   4.306   1.600 -0.8535  0.0759  1.0618
    1SOL    MW4 3872   4.035   4.262   1.629 -0.1621  0.2866 -0.2252
    1SOL     OW 3873   4.240   4.427   1.511 -0.1803 -0.0842  0.0914
    1SOL    HW2 3874   4.176   4.362   1.540 -0.7560  1.4055  2.3342
    1SOL    HW3 3875   4.242   4.419   1.416 -3.2823 -0.5529  0.0159
    1SOL    MW4 3876   4.232   4.417   1.502 -0.6652  0.0501  0.3774
    1SOL     OW 3877   0.220   0.022   1.883  0.7988  0.3896 -0.0398
    1SOL    HW2 3878   0.302   0.065   1.904  0.3035  1.1966  0.2378
    1SOL    HW3 3879   0.230  -0.006   1.792  1.5456  0.0886  0.1333
    1SOL    MW4 3880   0.232   0.024   1.874  0.8320  0.4563  0.0196
    1SOL     OW 3881   0.008   0.126   2.014  0.5002  0.1810  0.2836
    1SOL    HW2 3882  -0.019   0.203   1.964  1.7246  1.5190  1.6430
    1SOL    HW3 3883   0.089   0.098   1.972 -0.3150 -0.8286 -0.6587
    1SOL    MW4 3884   0.015   0.132   2.002  0.5541  0.2243  0.3388
    1SOL     OW 3885   4.454   0.351   1.853  0.1253  0.5707 -0.2795
    1SOL    HW2 3886   4.377   0.402   1.879  0.1191  0.8164 -0.7903
    1SOL    HW3 3887   4.528   0.398   1.893 -0.1280 -0.6796  1.7699
    1SOL    MW4 3888   4.454   0.364   1.862  0.0906  0.4382 -0.0767
    1SOL     OW 3889   0.169   0.513   1.977  0.3140  0.2718  0.2286
    1SOL    HW2 3890   0.249   0.466   1.955  0.5253  0.8729 -0.2948
    1SOL    HW3 3891   0.179   0.598   1.936 -1.0866 -0.0324 -0.7844
    1SOL    MW4 3892   0.181   0.518   1.969  0.1570  0.3110  0.0259
    1SOL     OW 3893   0.190   0.790   1.907  0.6717 -0.1616  0.0276
    1SOL    HW2 3894   0.272   0.834   1.930  1.5282 -1.1534 -1.0865
    1SOL    HW3 3895   0.197   0.772   1.813 -1.0670  0.2381 -0.2039
    1SOL    MW4 3896   0.201   0.793   1.898  0.5553 -0.2397 -0.1501
    1SOL     OW 3897   4.465   0.904   2.019  0.1016 -0.1950  0.2776
    1SOL    HW2 3898   4.399   0.840   1.995  0.5350 -1.2774  1.8605
    1SOL    HW3 3899   4.545   0.872   1.977  0.0464 -0.0033  0.0294
    1SOL    MW4 3900   4.467   0.891   2.011  0.1516 -0.3125  0.4539
    1SOL     OW 3901   4.403   1.151   1.893  0.0061 -0.2841 -0.0988
    1SOL    HW2 3902   4.345   1.202   1.950 -0.4371  0.9258 -1.5991
    1SOL    HW3 3903   4.432   1.078   1.948 -1.8445 -0.1569  1.0998
    1SOL    MW4 3904   4.399   1.148   1.908 -0.2966 -0.1076 -0.1385
    1SOL     OW 3905   0.187   1.298   1.946 -0.1903 -0.3788  0.5837
    1SOL    HW2 3906   0.170   1.385   1.911 -0.6158 -0.1343  1.3932
    1SOL    HW3 3907   0.113   1.244   1.917  1.1668 -1.0252 -1.7861
    1SOL    MW4 3908   0.175   1.302   1.938 -0.0674 -0.4318  0.3778
    1SOL     OW 3909   0.199   1.575   1.870  0.4806  0.6142 -0.4340
    1SOL    HW2 3910   0.263   1.598   1.937  0.6659 -0.6714 -0.1657
    1SOL    HW3 3911   0.117   1.613   1.901  0.2801 -1.1001  1.1854
    1SOL    MW4 3912   0.197   1.583   1.883  0.4786  0.2185 -0.1849
    1SOL     OW 3913   4.484   1.730   1.972  0.6430  0.5321 -0.3594
    1SOL    HW2 3914   4.487   1.712   2.066  0.3625 -0.8637 -0.6156
    1SOL    HW3 3915   4.412   1.677   1.939  1.0150  0.6844 -1.4391
    1SOL    MW4 3916   4.475   1.721   1.980  0.6557  0.3680 -0.5357
    1SOL     OW 3917   0.019   1.973   1.885 -0.2156 -0.5092  0.0527
    1SOL    HW2 3918  -0.068   2.012   1.896 -0.4517 -0.4923 -1.7721
    1SOL    HW3 3919   0.012   1.888   1.929 -1.1692 -0.5352 -0.1343
    1SOL    MW4 3920   0.007   1.967   1.892 -0.3729 -0.5103 -0.2127
    1SOL     OW 3921   0.220   2.052   2.044 -0.3216 -0.0539 -0.5672
    1SOL    HW2 3922   0.247   2.134   2.003 -0.4514  0.2438 -0.0663
    1SOL    HW3 3923   0.145   2.022   1.992 -0.9429  0.6919 -0.1170
    1SOL    MW4 3924   0.214   2.059   2.032 -0.4207  0.0834 -0.4416
    1SOL     OW 3925   0.280   2.296   1.935  0.1284 -0.2557 -0.3340
    1SOL    HW2 3926   0.346   2.364   1.950 -0.1829 -0.2800  1.2404
    1SOL    HW3 3927   0.197   2.339   1.956 -0.1528 -0.8770 -0.1849
    1SOL    MW4 3928   0.278   2.311   1.939  0.0502 -0.3409 -0.1067
    1SOL     OW 3929   0.030   2.421   1.990  0.2438 -0.0864 -0.2733
    1SOL    HW2 3930   0.015   2.434   2.083 -1.5144 -0.3115 -0.4996
    1SOL    HW3 3931   0.038   2.510   1.955  0.4487  0.0135  0.0264
    1SOL    MW4 3932   0.029   2.435   1.997  0.0388 -0.1028 -0.2637
    1SOL     OW 3933   0.041   2.676   1.886  0.2330  0.5253  0.3317
    1SOL    HW2 3934  -0.024   2.738   1.920  0.6036  0.7041  0.7079
    1SOL    HW3 3935   0.048   2.697   1.793  0.5864  1.2483  0.5230
    1SOL    MW4 3936   0.033   2.687   1.878  0.3285  0.6442  0.4065
    1SOL     OW 3937   0.248   2.823   2.011 -0.3052  0.8632 -0.4047
    1SOL    HW2 3938   0.238   2.907   1.968  0.7692  1.0613 -0.2950
    1SOL    HW3 3939   0.185   2.765   1.968 -1.4567  1.8755 -0.0743
    1SOL    MW4 3940   0.239   2.826   2.000 -0.3154  1.0231 -0.3470
    1SOL     OW 3941   0.249   3.074   1.896 -0.1739 -0.2889 -0.1558
    1SOL    HW2 3942   0.320   3.134   1.918 -1.3623  1.4615 -0.9715
    1SOL    HW3 3943   0.254   3.065   1.801  0.2702 -1.8510  0.0095
    1SOL    MW4 3944   0.259   3.081   1.886 -0.2721 -0.2644 -0.2415
    1SOL     OW 3945   0.019   3.228   1.973 -0.4141 -0.0912 -0.4898
    1SOL    HW2 3946  -0.067   3.192   1.952 -0.8246  0.1270  0.7932
    1SOL    HW3 3947   0.081   3.164   1.939 -1.0638 -0.1193 -1.6674
    1SOL    MW4 3948   0.016   3.215   1.965 -0.5539 -0.0660 -0.4760
    1SOL     OW 3949   0.019   3.514   1.878  0.5736 -0.0649  0.0990
    1SOL    HW2 3950   0.089   3.571   1.909  0.8844 -0.1660 -0.4112
    1SOL    HW3 3951   0.041   3.428   1.913  0.1328  0.1099  0.8255
    1SOL    MW4 3952   0.031   3.510   1.887  0.5565 -0.0551  0.1277
    1SOL     OW 3953   0.240   3.648   1.965  0.2241  0.0808 -0.1917
    1SOL    HW2 3954   0.253   3.636   2.059  0.4355  0.2952 -0.1937
    1SOL    HW3 3955   0.318   3.610   1.925  0.2110  0.1393 -0.2732
    1SOL    MW4 3956   0.252   3.641   1.972  0.2503  0.1168 -0.2027
    1SOL     OW 3957   0.204   3.894   1.879  0.7171  0.2199  0.5751
    1SOL    HW2 3958   0.282   3.944   1.901  1.4191 -0.3519 -0.5955
    1SOL    HW3 3959   0.222   3.805   1.908  0.3806  0.1490  0.5768
    1SOL    MW4 3960   0.216   3.889   1.886  0.7653  0.1349  0.4208
    1SOL     OW 3961   4.470   4.001   1.963  0.1204  0.3584  0.6087
    1SOL    HW2 3962   4.484   4.092   1.938 -0.2304 -0.2146 -1.8156
    1SOL    HW3 3963   4.551   3.956   1.938 -0.7415 -0.4708 -0.8299
    1SOL    MW4 3964   4.482   4.007   1.956 -0.0396  0.1736  0.0991
    1SOL     OW 3965   4.484   4.270   1.874  0.4631  0.2579  0.1762
    1SOL    HW2 3966   4.409   4.320   1.908  0.1228  0.3880 -0.7640
    1SOL    HW3 3967   4.560   4.320   1.902  0.2473 -0.4047  2.0142
    1SOL    MW4 3968   4.484   4.283   1.882  0.3901  0.1879  0.2947
    1SOL     OW 3969   0.202   4.428   1.990 -0.2542 -0.1293 -0.3924
    1SOL    HW2 3970   0.186   4.420   2.084 -0.8260  1.0664 -0.3814
    1SOL    HW3 3971   0.214   4.522   1.976  2.0310 -0.5059 -1.1662
    1SOL    MW4 3972   0.202   4.439   2.001 -0.0281 -0.0210 -0.4930
    1SOL     OW 3973   0.700   4.649   1.911  0.3824  0.1784  0.6963
    1SOL    HW2 3974   0.701   4.560   1.946 -0.6010  0.2216  0.8416
    1SOL    HW3 3975   0.702   4.637   1.816  1.7583  0.0361  0.7364
    1SOL    MW4 3976   0.700   4.635   1.903  0.4342  0.1655  0.7206
    1SOL     OW 3977   0.474   0.142   1.965  0.0980 -0.3131 -0.2399
    1SOL    HW2 3978   0.485   0.235   1.944 -2.0609 -0.1893 -1.0529
    1SOL    HW3 3979   0.552   0.100   1.930  0.4726  1.0430 -1.0949
    1SOL    MW4 3980   0.486   0.149   1.957 -0.1374 -0.1179 -0.4599
    1SOL     OW 3981   0.419   0.413   1.879  0.1597  0.3396  0.3046
    1SOL    HW2 3982   0.510   0.443   1.890 -0.0041  1.2400 -0.7769
    1SOL    HW3 3983   0.412   0.390   1.786 -0.4259 -0.7350  0.6055
    1SOL    MW4 3984   0.430   0.414   1.868  0.0608  0.3166  0.2017
    1SOL     OW 3985   0.676   0.478   1.988  0.0501 -0.0917 -0.1472
    1SOL    HW2 3986   0.674   0.461   2.083  0.6674  0.4331 -0.0353
    1SOL    HW3 3987   0.761   0.445   1.960 -0.3414 -0.7174 -0.6184
    1SOL    MW4 3988   0.687   0.471   1.997  0.0799 -0.1050 -0.1947
    1SOL     OW 3989   0.668   0.759   1.900  0.3792  0.0730  0.4117
    1SOL    HW2 3990   0.750   0.797   1.932  0.6378  0.3411 -0.5562
    1SOL    HW3 3991   0.661   0.676   1.947  0.1056  1.0158  2.1019
    1SOL    MW4 3992   0.678   0.753   1.910  0.3772  0.2328  0.5070
    1SOL     OW 3993   0.436   0.897   1.982  0.2957  0.0511 -0.2537
    1SOL    HW2 3994   0.434   0.992   1.964 -0.3883 -0.1914 -1.4965
    1SOL    HW3 3995   0.513   0.866   1.934  0.2650 -0.0869 -0.2132
    1SOL    MW4 3996   0.446   0.906   1.973  0.2014  0.0008 -0.4123
    1SOL     OW 3997   0.430   1.165   1.902 -0.2240 -0.7774 -0.4510
    1SOL    HW2 3998   0.346   1.203   1.927 -0.2665 -0.4058 -1.1542
    1SOL    HW3 3999   0.430   1.167   1.806  0.3517 -1.2864 -0.4649
    1SOL    MW4 4000   0.419   1.170   1.893 -0.1536 -0.7955 -0.5455
    1SOL     OW 4001   0.663   1.333   1.964  0.0899 -0.2666  0.4347
    1SOL    HW2 4002   0.675   1.328   2.058 -1.2326  0.1135  0.6368
    1SOL    HW3 4003   0.588   1.276   1.946 -0.2424  0.3709 -0.2582
    1SOL    MW4 4004   0.655   1.325   1.974 -0.1285 -0.1323  0.3699
    1SOL     OW 4005   0.670   1.597   1.849 -0.1187  0.1756  0.1983
    1SOL    HW2 4006   0.675   1.507   1.882  0.2780  0.4878  0.9853
    1SOL    HW3 4007   0.649   1.586   1.756  0.3064 -0.7439  0.2002
    1SOL    MW4 4008   0.668   1.584   1.841 -0.0103  0.0956  0.3023
    1SOL     OW 4009   0.439   1.659   2.005 -0.1908 -0.0568 -0.4576
    1SOL    HW2 4010   0.452   1.655   2.100 -2.0851  2.1014 -0.0712
    1SOL    HW3 4011   0.527   1.649   1.969  0.2708 -3.3397  1.4090
    1SOL    MW4 4012   0.453   1.657   2.013 -0.3798 -0.2050 -0.1602
    1SOL     OW 4013   0.412   1.911   1.907  0.1588  0.2318  0.7136
    1SOL    HW2 4014   0.419   1.826   1.952 -1.7485 -0.0066  0.5888
    1SOL    HW3 4015   0.333   1.951   1.943  0.2835  1.3567 -0.2417
    1SOL    MW4 4016   0.402   1.905   1.918 -0.0764  0.3488  0.5711
    1SOL     OW 4017   0.639   2.039   1.984 -0.0800  0.0999 -0.4008
    1SOL    HW2 4018   0.645   2.026   2.079  2.4591 -0.5427 -0.6061
    1SOL    HW3 4019   0.553   2.003   1.961 -0.1819 -0.9605  1.4704
    1SOL    MW4 4020   0.628   2.032   1.994  0.2415 -0.1249 -0.1810
    1SOL     OW 4021   0.669   2.327   1.883  0.3970 -0.1910  0.0177
    1SOL    HW2 4022   0.668   2.237   1.916  2.1198 -0.6838 -1.1789
    1SOL    HW3 4023   0.655   2.317   1.788 -0.2299  0.8762 -0.0075
    1SOL    MW4 4024   0.667   2.313   1.875  0.5416 -0.1152 -0.1434
    1SOL     OW 4025   0.470   2.484   1.998 -0.0516 -0.0154 -0.4126
    1SOL    HW2 4026   0.473   2.488   2.093  1.0367  0.4199 -0.4523
    1SOL    HW3 4027   0.539   2.421   1.975 -0.0182  0.2095 -0.9269
    1SOL    MW4 4028   0.479   2.476   2.007  0.0964  0.0715 -0.4857
    1SOL     OW 4029   0.509   2.748   1.895  0.1414  0.3461  0.2784
    1SOL    HW2 4030   0.485   2.661   1.927 -0.2596  0.8602  1.3647
    1SOL    HW3 4031   0.441   2.806   1.929  0.0288  0.9879 -1.0144
    1SOL    MW4 4032   0.497   2.744   1.903  0.0736  0.4988  0.2512
    1SOL     OW 4033   0.713   2.881   2.004  0.0265  0.1023 -0.3460
    1SOL    HW2 4034   0.721   2.856   2.095 -0.6683  0.1733 -0.2655
    1SOL    HW3 4035   0.639   2.830   1.971 -0.3926  0.8652 -0.5900
    1SOL    MW4 4036   0.704   2.871   2.011 -0.1204  0.2122 -0.3679
    1SOL     OW 4037   0.685   3.137   1.903 -0.1076 -0.0925  0.0184
    1SOL    HW2 4038   0.697   3.046   1.929 -0.7805 -0.2944 -0.3773
    1SOL    HW3 4039   0.679   3.135   1.808 -2.1587  0.1300  0.1319
    1SOL    MW4 4040   0.686   3.125   1.894 -0.4669 -0.0896 -0.0187
    1SOL     OW 4041   0.440   3.232   1.991 -0.0303 -0.3373 -0.0953
    1SOL    HW2 4042   0.419   3.324   1.974  0.8866  0.1959  1.4766
    1SOL    HW3 4043   0.530   3.222   1.961 -0.6993 -1.1888 -1.8495
    1SOL    MW4 4044   0.449   3.243   1.985  0.0024 -0.3793 -0.1193
    1SOL     OW 4045   0.453   3.509   1.874  0.0410  0.1214  0.6632
    1SOL    HW2 4046   0.533   3.559   1.886  0.1764  0.0587  0.0111
    1SOL    HW3 4047   0.448   3.493   1.780 -0.1260 -0.8917  0.8406
    1SOL    MW4 4048   0.463   3.514   1.863  0.0368 -0.0205  0.6006
    1SOL     OW 4049   0.667   3.645   1.952  0.4086 -0.0753  0.0131
    1SOL    HW2 4050   0.742   3.593   1.926 -0.0132 -0.5526 -0.2493
    1SOL    HW3 4051   0.686   3.733   1.919 -0.1624 -0.6873 -1.9928
    1SOL    MW4 4052   0.679   3.650   1.945  0.2776 -0.2191 -0.2860
    1SOL     OW 4053   0.674   3.909   1.859  0.0502  0.0843 -0.3819
    1SOL    HW2 4054   0.735   3.977   1.889 -1.3675  1.0698  0.3181
    1SOL    HW3 4055   0.684   3.907   1.764  2.0514 -0.6113 -0.1697
    1SOL    MW4 4056   0.683   3.918   1.851  0.1273  0.1225 -0.2615
    1SOL     OW 4057   0.442   4.016   1.962 -0.0991  0.3274 -0.2720
    1SOL    HW2 4058   0.448   4.111   1.953  0.5040  0.2969 -0.2184
    1SOL    HW3 4059   0.516   3.983   1.910  0.6842 -0.0419  1.0447
    1SOL    MW4 4060   0.453   4.024   1.954  0.0838  0.2751 -0.0913
    1SOL     OW 4061   0.431   4.286   1.919  0.2929 -0.1480  0.3115
    1SOL    HW2 4062   0.365   4.352   1.939  1.9598  1.1217  1.8626
    1SOL    HW3 4063   0.428   4.275   1.824 -3.1077 -1.1913  0.5010
    1SOL    MW4 4064   0.422   4.293   1.909  0.0641 -0.1187  0.5410
    1SOL     OW 4065   0.666   4.400   2.022 -0.8140  0.0444 -0.3347
    1SOL    HW2 4066   0.741   4.351   1.988 -1.5014 -0.7062 -0.7902
    1SOL    HW3 4067   0.590   4.350   1.993 -1.4820  0.6321  0.3859
    1SOL    MW4 4068   0.666   4.387   2.014 -0.9929  0.0219 -0.2997
    1SOL     OW 4069   1.117   4.635   1.826  0.3254 -0.2069  0.0041
    1SOL    HW2 4070   1.201   4.670   1.855  1.0422 -1.1844 -0.8470
    1SOL    HW3 4071   1.110   4.551   1.871  0.4647 -0.7689 -1.0230
    1SOL    MW4 4072   1.127   4.628   1.836  0.4385 -0.4101 -0.2439
    1SOL     OW 4073   0.939   0.109   1.967 -0.5782  0.2690  0.0930
    1SOL    HW2 4074   1.006   0.061   1.918  0.4548 -0.0094  1.7160
    1SOL    HW3 4075   0.858   0.061   1.951  0.3788 -1.8411  1.4269
    1SOL    MW4 4076   0.937   0.096   1.958 -0.3157 -0.0461  0.4833
    1SOL     OW 4077   0.906   0.367   1.887 -0.3793  0.0838  0.5807
    1SOL    HW2 4078   0.970   0.421   1.935 -0.5677  0.4394  0.4379
    1SOL    HW3 4079   0.920   0.279   1.920 -0.6569  0.3598  1.4557
    1SOL    MW4 4080   0.917   0.363   1.898 -0.4408  0.1671  0.6772
    1SOL     OW 4081   1.116   0.514   1.998  0.2272 -0.2119 -0.0188
    1SOL    HW2 4082   1.197   0.469   1.974  0.9815  0.5136  1.1365
    1SOL    HW3 4083   1.127   0.603   1.965 -0.3426 -0.2608 -0.3570
    1SOL    MW4 4084   1.128   0.520   1.990  0.2515 -0.1226  0.0890
    1SOL     OW 4085   1.123   0.758   1.886 -0.4078 -0.3931  0.6559
    1SOL    HW2 4086   1.190   0.825   1.900 -0.9137  0.3824 -0.6043
    1SOL    HW3 4087   1.043   0.795   1.925 -0.6792 -0.2795 -0.0084
    1SOL    MW4 4088   1.121   0.771   1.893 -0.5105 -0.2758  0.4020
    1SOL     OW 4089   0.906   0.881   2.001  0.4781  0.4067 -0.2596
    1SOL    HW2 4090   0.909   0.893   2.096 -1.6414  1.1325 -0.2599
    1SOL    HW3 4091   0.905   0.969   1.965 -0.9664  0.1747 -0.8441
    1SOL    MW4 4092   0.906   0.894   2.009  0.0079  0.4719 -0.3366
    1SOL     OW 4093   0.876   1.135   1.894  0.3818  0.5872 -0.6050
    1SOL    HW2 4094   0.818   1.201   1.933  1.0289  0.9071 -0.1741
    1SOL    HW3 4095   0.862   1.144   1.800 -2.3590 -1.2417 -0.4486
    1SOL    MW4 4096   0.866   1.145   1.887  0.1056  0.3880 -0.5276
    1SOL     OW 4097   1.131   1.276   1.942 -0.3090 -0.2262 -0.5524
    1SOL    HW2 4098   1.118   1.370   1.927  0.6840 -0.0545 -0.3581
    1SOL    HW3 4099   1.043   1.239   1.937 -0.7766  0.7982 -0.0590
    1SOL    MW4 4100   1.118   1.283   1.939 -0.2397 -0.0684 -0.4617
    1SOL     OW 4101   1.069   1.540   1.891  0.5467 -0.2932  0.0391
    1SOL    HW2 4102   0.991   1.590   1.915  0.4174 -0.9375  0.9997
    1SOL    HW3 4103   1.068   1.537   1.796  0.1442  0.8861  0.0001
    1SOL    MW4 4104   1.059   1.546   1.882  0.4765 -0.2226  0.1607
    1SOL     OW 4105   0.875   1.709   2.002  0.5018  0.0827  0.1453
    1SOL    HW2 4106   0.891   1.794   1.962 -1.0029 -0.0328 -0.7371
    1SOL    HW3 4107   0.801   1.673   1.954  1.6348 -2.0904 -0.0116
    1SOL    MW4 4108   0.867   1.716   1.991  0.4528 -0.2193  0.0081
    1SOL     OW 4109   0.886   1.973   1.889 -0.3962 -0.4685  0.5038
    1SOL    HW2 4110   0.795   1.988   1.916 -0.4734 -1.3679  0.7610
    1SOL    HW3 4111   0.882   1.960   1.794 -0.5485 -0.5438  0.5204
    1SOL    MW4 4112   0.873   1.973   1.880 -0.4265 -0.5971  0.5399
    1SOL     OW 4113   1.116   2.065   1.993 -0.2399  0.3439  0.3169
    1SOL    HW2 4114   1.128   2.154   1.961  0.3891 -0.2348 -1.0927
    1SOL    HW3 4115   1.029   2.040   1.962 -0.1207  0.2154  0.0824
    1SOL    MW4 4116   1.106   2.073   1.985 -0.1411  0.2506  0.1001
    1SOL     OW 4117   1.110   2.318   1.843  0.2558  0.4353  0.3495
    1SOL    HW2 4118   1.193   2.352   1.878  0.1246 -0.8918  2.0615
    1SOL    HW3 4119   1.121   2.320   1.748  1.8910  1.1648  0.5365
    1SOL    MW4 4120   1.122   2.323   1.835  0.4541  0.3567  0.6000
    1SOL     OW 4121   0.902   2.449   1.961 -0.4107 -0.0258 -0.2875
    1SOL    HW2 4122   0.969   2.401   1.913  0.1954 -1.2001  1.6719
    1SOL    HW3 4123   0.820   2.403   1.940 -0.3364  0.2168 -1.1306
    1SOL    MW4 4124   0.900   2.436   1.952 -0.3209 -0.1488 -0.1403
    1SOL     OW 4125   0.858   2.684   1.819 -0.3153 -0.0624  0.5414
    1SOL    HW2 4126   0.850   2.615   1.885 -1.1670 -0.2144  0.2924
    1SOL    HW3 4127   0.802   2.755   1.852  0.2997  0.3802  0.6356
    1SOL    MW4 4128   0.849   2.685   1.832 -0.3465 -0.0241  0.5211
    1SOL     OW 4129   1.074   2.857   1.926 -0.7684  0.6155 -0.0054
    1SOL    HW2 4130   1.080   2.864   2.021 -1.1746 -0.0697  0.0707
    1SOL    HW3 4131   1.005   2.793   1.910  1.0208 -1.1949 -0.7334
    1SOL    MW4 4132   1.066   2.850   1.936 -0.5860  0.2863 -0.0914
    1SOL     OW 4133   1.121   3.110   1.844 -0.0599  0.0300  0.2275
    1SOL    HW2 4134   1.044   3.154   1.878 -0.7314 -1.6637  0.9283
    1SOL    HW3 4135   1.109   3.018   1.867  1.0548 -0.6283 -1.6682
    1SOL    MW4 4136   1.110   3.104   1.851 -0.0015 -0.2806  0.0699
    1SOL     OW 4137   0.916   3.255   1.965 -0.1870  0.4890 -0.0050
    1SOL    HW2 4138   0.924   3.244   2.060 -0.3800 -1.0422 -0.1466
    1SOL    HW3 4139   0.832   3.214   1.943  0.9401 -1.3280 -1.1266
    1SOL    MW4 4140   0.906   3.248   1.975 -0.0637  0.0472 -0.1717
    1SOL     OW 4141   0.882   3.501   1.862  0.2038 -0.3756 -0.0801
    1SOL    HW2 4142   0.904   3.416   1.902  2.1917  0.7649  1.3636
    1SOL    HW3 4143   0.898   3.488   1.769 -0.9293 -2.0161 -0.0658
    1SOL    MW4 4144   0.887   3.488   1.855  0.3166 -0.4416  0.1123
    1SOL     OW 4145   1.093   3.646   1.992  0.0113  0.3275 -0.1701
    1SOL    HW2 4146   1.097   3.625   2.085  1.9130 -0.5095 -0.4122
    1SOL    HW3 4147   1.020   3.594   1.958 -0.0938 -0.0757  0.6765
    1SOL    MW4 4148   1.084   3.636   2.000  0.2484  0.1638 -0.0901
    1SOL     OW 4149   1.077   3.886   1.847  0.1682 -0.1709  0.9337
    1SOL    HW2 4150   1.090   3.795   1.872 -0.0188  0.0954  2.0171
    1SOL    HW3 4151   1.052   3.882   1.755 -0.2491 -1.2385  1.0830
    1SOL    MW4 4152   1.076   3.873   1.838  0.0886 -0.2768  1.0962
    1SOL     OW 4153   0.888   4.048   1.996 -0.3783 -0.1485  0.1381
    1SOL    HW2 4154   0.892   4.022   2.088 -0.0583  0.9588  0.4515
    1SOL    HW3 4155   0.956   3.996   1.954  2.2907  2.2345  1.2985
    1SOL    MW4 4156   0.898   4.038   2.003  0.0161  0.3114  0.3324
    1SOL     OW 4157   0.880   4.277   1.854  0.1307  0.1481 -0.1218
    1SOL    HW2 4158   0.948   4.334   1.892  0.4401  0.4311 -1.0961
    1SOL    HW3 4159   0.895   4.192   1.894 -0.5773  0.8248  1.6583
    1SOL    MW4 4160   0.891   4.274   1.865  0.0781  0.2742 -0.0155
    1SOL     OW 4161   1.109   4.395   1.968  0.1527  0.5590 -0.0922
    1SOL    HW2 4162   1.115   4.394   2.064  1.3730 -1.2424 -0.1654
    1SOL    HW3 4163   1.187   4.348   1.938  0.4318  2.1758 -2.0270
    1SOL    MW4 4164   1.120   4.388   1.977  0.3504  0.5345 -0.3572
    1SOL     OW 4165   1.561   4.653   1.857  0.0045 -0.0551 -0.0058
    1SOL    HW2 4166   1.634   4.697   1.901  0.2683 -0.2159 -0.2736
    1SOL    HW3 4167   1.567   4.562   1.888 -0.6541  0.1346  0.6954
    1SOL    MW4 4168   1.572   4.647   1.867 -0.0476 -0.0510  0.0514
    1SOL     OW 4169   1.324   0.081   1.960  0.0054  0.4590  0.4276
    1SOL    HW2 4170   1.318   0.091   2.055  0.3806  1.8399  0.3174
    1SOL    HW3 4171   1.412   0.046   1.945  0.2328  0.9749  0.5418
    1SOL    MW4 4172   1.335   0.077   1.971  0.0848  0.7093  0.4281
    1SOL     OW 4173   1.320   0.372   1.914 -0.0193  0.1283 -0.1932
    1SOL    HW2 4174   1.296   0.283   1.937  0.3104  0.2150  0.4932
    1SOL    HW3 4175   1.316   0.374   1.818  1.9010 -1.1731 -0.3223
    1SOL    MW4 4176   1.316   0.361   1.904  0.2776 -0.0319 -0.1194
    1SOL     OW 4177   1.590   0.459   2.011  0.0090  0.2192  0.4041
    1SOL    HW2 4178   1.669   0.424   1.969 -0.1798  0.5309 -0.2169
    1SOL    HW3 4179   1.518   0.408   1.973 -0.2034  0.8061  0.0237
    1SOL    MW4 4180   1.591   0.448   2.001 -0.0440  0.3377  0.2718
    1SOL     OW 4181   1.580   0.733   1.927 -0.4263 -0.2195  0.4586
    1SOL    HW2 4182   1.649   0.789   1.962  0.8835 -1.4024 -0.1494
    1SOL    HW3 4183   1.588   0.652   1.977 -0.8414 -0.6492 -0.1749
    1SOL    MW4 4184   1.590   0.730   1.938 -0.3082 -0.4323  0.2948
    1SOL     OW 4185   1.366   0.905   1.956 -0.3898 -0.1387 -0.2210
    1SOL    HW2 4186   1.366   0.883   2.048  0.1913 -0.8763 -0.3915
    1SOL    HW3 4187   1.440   0.857   1.920  0.5245  1.5793 -0.7161
    1SOL    MW4 4188   1.376   0.896   1.963 -0.1925 -0.0094 -0.3088
    1SOL     OW 4189   1.380   1.179   1.883  0.0617  0.1567  0.5687
    1SOL    HW2 4190   1.385   1.091   1.921 -1.5198 -1.0467 -1.8999
    1SOL    HW3 4191   1.296   1.213   1.912 -0.4474 -0.1483 -0.5299
    1SOL    MW4 4192   1.370   1.172   1.892 -0.2142 -0.0422  0.0980
    1SOL     OW 4193   1.580   1.304   1.988  0.3428 -0.2178 -0.4587
    1SOL    HW2 4194   1.577   1.389   1.946 -0.7061  0.0913  0.2086
    1SOL    HW3 4195   1.506   1.256   1.950  0.1702 -0.3850  0.0859
    1SOL    MW4 4196   1.570   1.309   1.978  0.1817 -0.1991 -0.2989
    1SOL     OW 4197   1.580   1.551   1.858 -0.2464  0.3365  0.4241
    1SOL    HW2 4198   1.652   1.600   1.897  0.1851 -0.4261  0.5850
    1SOL    HW3 4199   1.503   1.605   1.875  0.2130  0.9166  0.6803
    1SOL    MW4 4200   1.579   1.565   1.865 -0.1287  0.3124  0.4791
    1SOL     OW 4201   1.333   1.658   1.924  0.4370  0.0577 -0.0680
    1SOL    HW2 4202   1.338   1.654   2.019  1.3648 -1.3152 -0.1633
    1SOL    HW3 4203   1.247   1.624   1.902  0.5976 -0.5489  0.2354
    1SOL    MW4 4204   1.323   1.653   1.934  0.5807 -0.2034 -0.0405
    1SOL     OW 4205   1.328   1.931   1.874  0.1061 -0.3032  0.2811
    1SOL    HW2 4206   1.319   1.836   1.884 -0.9471 -0.6035 -2.9083
    1SOL    HW3 4207   1.249   1.967   1.914  0.1821 -0.8267  0.9048
    1SOL    MW4 4208   1.316   1.923   1.880 -0.0229 -0.4119 -0.0575
    1SOL     OW 4209   1.587   2.035   1.966 -0.0334  0.0609 -0.1659
    1SOL    HW2 4210   1.569   2.124   1.934 -1.9294 -0.2800 -0.1080
    1SOL    HW3 4211   1.516   1.982   1.929  1.5382 -1.5978 -0.8811
    1SOL    MW4 4212   1.575   2.040   1.957 -0.0762 -0.2031 -0.2526
    1SOL     OW 4213   1.558   2.290   1.859 -0.5799  0.4337 -0.0156
    1SOL    HW2 4214   1.634   2.339   1.890  0.4017 -1.7256  1.1238
    1SOL    HW3 4215   1.557   2.305   1.764  0.2487  1.8619  0.1888
    1SOL    MW4 4216   1.568   2.298   1.851 -0.3411  0.3374  0.1616
    1SOL     OW 4217   1.341   2.427   1.960  0.0859  0.1130  0.1968
    1SOL    HW2 4218   1.340   2.515   1.923  0.1610  0.2730  0.5744
    1SOL    HW3 4219   1.402   2.378   1.905 -0.0373  0.2664 -0.0788
    1SOL    MW4 4220   1.349   2.432   1.948  0.0794  0.1545  0.2103
    1SOL     OW 4221   1.305   2.698   1.892  0.0540  0.2758  0.1599
    1SOL    HW2 4222   1.223   2.744   1.907  0.3376  1.0234 -0.5270
    1SOL    HW3 4223   1.317   2.701   1.797  0.2181 -0.9767  0.1337
    1SOL    MW4 4224   1.296   2.704   1.881  0.1131  0.2089  0.0659
    1SOL     OW 4225   1.560   2.871   1.946 -0.3469  0.0076  0.5344
    1SOL    HW2 4226   1.641   2.822   1.936  0.0217  0.7876 -0.4087
    1SOL    HW3 4227   1.492   2.814   1.911 -0.1016 -0.3420  0.6297
    1SOL    MW4 4228   1.561   2.857   1.940 -0.2658  0.0646  0.4226
    1SOL     OW 4229   1.542   3.147   1.860  0.0106 -0.0082  0.3325
    1SOL    HW2 4230   1.544   3.059   1.897  1.7183  0.4435  1.3567
    1SOL    HW3 4231   1.546   3.133   1.765  1.1597 -1.0221  0.5187
    1SOL    MW4 4232   1.543   3.133   1.852  0.3874 -0.0825  0.4922
    1SOL     OW 4233   1.310   3.241   2.001  0.1104 -0.3449  0.3842
    1SOL    HW2 4234   1.393   3.223   1.958  0.4983 -0.5809  1.2179
    1SOL    HW3 4235   1.244   3.203   1.943  0.7040 -1.6785  0.5468
    1SOL    MW4 4236   1.312   3.233   1.988  0.2398 -0.5522  0.5157
    1SOL     OW 4237   1.286   3.485   1.884  0.1654 -0.4217  0.1717
    1SOL    HW2 4238   1.274   3.394   1.912  1.4341 -1.0509 -1.3025
    1SOL    HW3 4239   1.219   3.533   1.934  1.0435 -1.7716  2.7764
    1SOL    MW4 4240   1.275   3.479   1.894  0.4487 -0.6828  0.3209
    1SOL     OW 4241   1.502   3.660   1.936  0.0603  0.1235  0.3565
    1SOL    HW2 4242   1.517   3.645   2.029  1.7829 -1.0697 -0.0904
    1SOL    HW3 4243   1.426   3.607   1.914 -0.1219  0.1207  1.0070
    1SOL    MW4 4244   1.494   3.651   1.945  0.2636 -0.0343  0.3834
    1SOL     OW 4245   1.510   3.927   1.857 -0.1550 -0.4987 -0.0408
    1SOL    HW2 4246   1.592   3.954   1.898 -0.3483 -0.3365  0.2419
    1SOL    HW3 4247   1.500   3.835   1.882  0.7426 -0.9648 -1.3984
    1SOL    MW4 4248   1.519   3.918   1.866 -0.0622 -0.5388 -0.1827
    1SOL     OW 4249   1.289   3.999   1.981  0.4346  0.1126 -0.3626
    1SOL    HW2 4250   1.364   3.958   1.938 -0.4516 -0.0522 -1.8145
    1SOL    HW3 4251   1.213   3.958   1.940 -0.4490  0.9778  0.3805
    1SOL    MW4 4252   1.289   3.988   1.970  0.2012  0.2048 -0.4562
    1SOL     OW 4253   1.339   4.242   1.889  0.0839 -0.2240 -0.8089
    1SOL    HW2 4254   1.325   4.151   1.915 -0.3805 -0.0798 -0.5481
    1SOL    HW3 4255   1.359   4.238   1.796 -0.5040 -0.5469 -0.9260
    1SOL    MW4 4256   1.340   4.229   1.880 -0.0550 -0.2480 -0.7899
    1SOL     OW 4257   1.574   4.374   1.963 -0.4107 -0.0227 -0.0193
    1SOL    HW2 4258   1.582   4.369   2.058 -1.5350 -0.7942  0.0325
    1SOL    HW3 4259   1.506   4.311   1.941 -1.4254  1.4620 -1.1623
    1SOL    MW4 4260   1.566   4.365   1.973 -0.6930  0.0715 -0.1633
    1SOL     OW 4261   2.066   4.656   1.841  0.2870 -0.4154  0.1285
    1SOL    HW2 4262   2.142   4.704   1.874 -0.9113  1.0766  0.7575
    1SOL    HW3 4263   2.064   4.575   1.893  1.4047 -0.4428  0.1391
    1SOL    MW4 4264   2.076   4.652   1.852  0.2763 -0.2217  0.2128
    1SOL     OW 4265   1.813   0.064   1.967  0.0537  0.3561  0.2513
    1SOL    HW2 4266   1.834   0.068   2.061  1.6440  1.0956 -0.1059
    1SOL    HW3 4267   1.893   0.029   1.927 -0.8700 -0.6060 -0.7437
    1SOL    MW4 4268   1.827   0.060   1.974  0.1416  0.3268  0.0728
    1SOL     OW 4269   1.815   0.340   1.903  0.0665  0.0831  0.0272
    1SOL    HW2 4270   1.833   0.253   1.938  0.2233  0.2572  0.3841
    1SOL    HW3 4271   1.814   0.328   1.809 -3.6476 -1.0340  0.1476
    1SOL    MW4 4272   1.817   0.327   1.896 -0.4029 -0.0413  0.0904
    1SOL     OW 4273   2.034   0.494   1.994  0.3526 -0.2465 -0.2921
    1SOL    HW2 4274   2.018   0.583   1.963 -0.9881 -0.6771 -0.8786
    1SOL    HW3 4275   1.958   0.444   1.963  0.1713 -1.2059  1.6042
    1SOL    MW4 4276   2.022   0.499   1.986  0.1519 -0.4299 -0.1192
    1SOL     OW 4277   1.975   0.745   1.901  0.2436  0.4048 -0.2729
    1SOL    HW2 4278   2.060   0.788   1.914  0.1670  1.0232 -1.6991
    1SOL    HW3 4279   1.966   0.738   1.806 -0.7516 -0.7862 -0.1031
    1SOL    MW4 4280   1.985   0.750   1.890  0.1024  0.3293 -0.4386
    1SOL     OW 4281   1.801   0.892   2.018  0.5129 -0.0370  0.3803
    1SOL    HW2 4282   1.805   0.981   1.983 -1.6050 -1.0090 -2.5856
    1SOL    HW3 4283   1.881   0.850   1.987 -0.2027 -0.1858 -1.2977
    1SOL    MW4 4284   1.812   0.899   2.009  0.1391 -0.1850 -0.2327
    1SOL     OW 4285   1.785   1.150   1.906  0.0717  0.5079 -0.1312
    1SOL    HW2 4286   1.715   1.206   1.940 -1.3770 -1.3078 -0.0454
    1SOL    HW3 4287   1.786   1.167   1.812  0.6492  1.7567  0.0879
    1SOL    MW4 4288   1.776   1.160   1.899 -0.0430  0.4332 -0.0910
    1SOL     OW 4289   2.052   1.268   1.982 -0.4264  0.0994 -0.2163
    1SOL    HW2 4290   2.135   1.229   1.955 -0.1650  0.7426 -0.3656
    1SOL    HW3 4291   1.986   1.203   1.960  0.1931 -1.1427  1.4363
    1SOL    MW4 4292   2.054   1.255   1.976 -0.3102  0.0204 -0.0180
    1SOL     OW 4293   2.059   1.549   1.896 -0.3620  0.1574 -0.2765
    1SOL    HW2 4294   2.068   1.464   1.939  1.1132  0.5797  0.2638
    1SOL    HW3 4295   2.022   1.528   1.809  1.0380 -1.1413 -0.5784
    1SOL    MW4 4296   2.055   1.535   1.890  0.0174  0.0416 -0.2450
    1SOL     OW 4297   1.820   1.666   1.977 -0.3572  0.0287 -0.5740
    1SOL    HW2 4298   1.821   1.749   1.928  0.2325 -0.4832 -1.4367
    1SOL    HW3 4299   1.893   1.616   1.940 -0.8990 -0.9952 -0.2521
    1SOL    MW4 4300   1.830   1.671   1.966 -0.3508 -0.1740 -0.6453
    1SOL     OW 4301   1.808   1.899   1.856 -0.4835 -0.0621 -0.1409
    1SOL    HW2 4302   1.751   1.967   1.893 -0.8062 -0.1758 -0.4221
    1SOL    HW3 4303   1.796   1.907   1.762 -0.3416 -0.3576 -0.1843
    1SOL    MW4 4304   1.799   1.909   1.849 -0.5074 -0.1161 -0.1837
    1SOL     OW 4305   2.033   2.044   1.932  0.2758 -0.1851  0.7361
    1SOL    HW2 4306   2.119   2.003   1.921 -0.1037 -0.6089 -0.6888
    1SOL    HW3 4307   1.971   1.980   1.899 -0.3774  1.2299 -0.8357
    1SOL    MW4 4308   2.036   2.030   1.926  0.1397 -0.0544  0.3408
    1SOL     OW 4309   1.974   2.313   1.858  0.2004 -0.4288  0.5195
    1SOL    HW2 4310   2.044   2.364   1.899  0.3900 -0.6084  0.4223
    1SOL    HW3 4311   2.003   2.222   1.867 -0.5266 -0.5828  1.4410
    1SOL    MW4 4312   1.987   2.308   1.865  0.1295 -0.4730  0.6284
    1SOL     OW 4313   1.757   2.460   1.934 -0.4684  0.1956 -0.1990
    1SOL    HW2 4314   1.769   2.463   2.029 -0.3772  0.8167 -0.2307
    1SOL    HW3 4315   1.833   2.412   1.902  0.0664  0.9539 -0.0630
    1SOL    MW4 4316   1.768   2.454   1.942 -0.3858  0.3777 -0.1854
    1SOL     OW 4317   1.779   2.749   1.853  0.2365  0.2758 -0.2192
    1SOL    HW2 4318   1.770   2.662   1.891  0.2338  0.3192 -0.1229
    1SOL    HW3 4319   1.771   2.734   1.758  1.1694  0.0457 -0.2633
    1SOL    MW4 4320   1.777   2.735   1.845  0.3592  0.2511 -0.2123
    1SOL     OW 4321   1.984   2.887   1.948 -0.2973  0.1164 -0.2393
    1SOL    HW2 4322   1.975   2.870   2.041 -0.7042  0.8345 -0.1390
    1SOL    HW3 4323   1.904   2.850   1.909 -0.5942  0.6823 -0.1758
    1SOL    MW4 4324   1.972   2.880   1.955 -0.3901  0.2859 -0.2178
    1SOL     OW 4325   1.977   3.139   1.832  0.2805  0.1765  0.1099
    1SOL    HW2 4326   1.914   3.194   1.879 -0.1717 -0.9354  0.8091
    1SOL    HW3 4327   1.973   3.054   1.876  1.9262 -0.0435 -0.1435
    1SOL    MW4 4328   1.968   3.135   1.844  0.4380  0.0010  0.1688
    1SOL     OW 4329   1.768   3.268   1.959  0.2166  0.0486 -0.5133
    1SOL    HW2 4330   1.761   3.260   2.054  1.0132 -2.4452 -0.6228
    1SOL    HW3 4331   1.692   3.220   1.925  0.5850 -0.1095 -1.1323
    1SOL    MW4 4332   1.757   3.260   1.967  0.3705 -0.3011 -0.6094
    1SOL     OW 4333   1.750   3.534   1.863 -0.3309  0.2321  0.3115
    1SOL    HW2 4334   1.762   3.440   1.875  0.0853  0.1798 -0.4839
    1SOL    HW3 4335   1.665   3.552   1.903 -0.9092 -0.6754 -0.4872
    1SOL    MW4 4336   1.740   3.524   1.870 -0.3523  0.1056  0.1011
    1SOL     OW 4337   1.988   3.651   1.952  0.2500 -0.3077  0.4049
    1SOL    HW2 4338   1.992   3.736   1.908  0.8123 -1.0367 -0.9804
    1SOL    HW3 4339   1.902   3.616   1.928  0.6316 -0.7871 -0.2832
    1SOL    MW4 4340   1.977   3.658   1.943  0.3746 -0.4671  0.1315
    1SOL     OW 4341   2.012   3.899   1.846 -0.1578 -0.2212 -0.1693
    1SOL    HW2 4342   2.095   3.933   1.880 -1.2852  0.7317  1.7240
    1SOL    HW3 4343   2.033   3.868   1.758  1.8825  1.4043 -0.2987
    1SOL    MW4 4344   2.025   3.900   1.839 -0.0372  0.1190  0.0633
    1SOL     OW 4345   1.771   4.010   1.962 -0.2600 -0.5448  0.3241
    1SOL    HW2 4346   1.799   4.100   1.947  1.5449 -0.8272  1.7070
    1SOL    HW3 4347   1.839   3.957   1.921 -0.7553 -1.2712  0.4326
    1SOL    MW4 4348   1.784   4.015   1.955 -0.0871 -0.6776  0.5208
    1SOL     OW 4349   1.814   4.293   1.888 -0.0456  0.0686 -0.4149
    1SOL    HW2 4350   1.723   4.323   1.900 -0.3034 -0.2364 -1.5184
    1SOL    HW3 4351   1.830   4.306   1.794  1.1540  0.3925 -0.1649
    1SOL    MW4 4352   1.804   4.299   1.877  0.0787  0.0715 -0.5275
    1SOL     OW 4353   2.043   4.405   1.966 -0.1873 -0.0957 -0.2928
    1SOL    HW2 4354   2.120   4.366   1.923  0.0669  0.0901 -0.0104
    1SOL    HW3 4355   1.969   4.357   1.930 -0.0345  0.5338 -1.4719
    1SOL    MW4 4356   2.044   4.393   1.955 -0.1335  0.0119 -0.4110
    1SOL     OW 4357   2.476   4.623   1.841 -0.2746 -0.2165 -0.1070
    1SOL    HW2 4358   2.558   4.658   1.877  0.4059 -0.1362 -1.6999
    1SOL    HW3 4359   2.473   4.532   1.872 -0.0992  0.0688  0.7859
    1SOL    MW4 4360   2.486   4.616   1.850 -0.1616 -0.1683 -0.1994
    1SOL     OW 4361   2.298   0.132   1.950 -0.0424 -0.0356  0.0387
    1SOL    HW2 4362   2.302   0.117   2.044 -0.0419 -0.3332 -0.0093
    1SOL    HW3 4363   2.369   0.080   1.914  1.4340  1.8727  0.0830
    1SOL    MW4 4364   2.308   0.123   1.958  0.1528  0.1769  0.0381
    1SOL     OW 4365   2.269   0.391   1.856  0.2231 -0.0215 -0.3776
    1SOL    HW2 4366   2.263   0.303   1.894  0.7607 -0.3322 -0.9845
    1SOL    HW3 4367   2.192   0.437   1.889 -0.4509 -0.9538 -0.6295
    1SOL    MW4 4368   2.258   0.385   1.865  0.2050 -0.1855 -0.4909
    1SOL     OW 4369   2.513   0.488   1.935 -0.2965  0.3112 -0.0011
    1SOL    HW2 4370   2.581   0.429   1.903 -0.3837 -0.4004  1.0847
    1SOL    HW3 4371   2.431   0.450   1.904 -0.2066  1.1500 -1.2806
    1SOL    MW4 4372   2.511   0.475   1.927 -0.2964  0.3280 -0.0266
    1SOL     OW 4373   2.448   0.757   1.860  0.2559 -0.1337 -0.0266
    1SOL    HW2 4374   2.457   0.671   1.902  0.9731  0.1551  0.4308
    1SOL    HW3 4375   2.448   0.738   1.766 -1.4829 -0.7937  0.0871
    1SOL    MW4 4376   2.449   0.743   1.853  0.1209 -0.1827  0.0488
    1SOL     OW 4377   2.225   0.864   1.966  0.2353 -0.2843  0.0821
    1SOL    HW2 4378   2.230   0.872   2.061  1.8363  0.8168 -0.0787
    1SOL    HW3 4379   2.308   0.823   1.941  0.0855  0.0043 -0.9029
    1SOL    MW4 4380   2.237   0.859   1.975  0.4270 -0.1010 -0.0690
    1SOL     OW 4381   2.268   1.128   1.863  0.0546  0.2576 -0.1899
    1SOL    HW2 4382   2.347   1.170   1.895 -0.7513  1.0203  0.8360
    1SOL    HW3 4383   2.262   1.047   1.914 -0.2685  0.6090  0.3408
    1SOL    MW4 4384   2.278   1.123   1.874 -0.0944  0.4045  0.0154
    1SOL     OW 4385   2.483   1.267   1.947  0.2550  0.5297 -0.5579
    1SOL    HW2 4386   2.487   1.261   2.042  0.9442 -1.0950 -0.6781
    1SOL    HW3 4387   2.454   1.357   1.930  0.7199  1.0224  1.1561
    1SOL    MW4 4388   2.479   1.278   1.957  0.4070  0.3804 -0.3476
    1SOL     OW 4389   2.454   1.518   1.856  0.0125 -0.5179 -0.3861
    1SOL    HW2 4390   2.387   1.579   1.887  0.1301 -1.0304  0.8738
    1SOL    HW3 4391   2.438   1.511   1.761 -1.4224 -0.2773 -0.1662
    1SOL    MW4 4392   2.443   1.525   1.847 -0.1612 -0.5537 -0.1910
    1SOL     OW 4393   2.288   1.676   1.991  0.1516 -0.2982 -0.3408
    1SOL    HW2 4394   2.289   1.682   2.087 -0.1001 -0.5019 -0.3238
    1SOL    HW3 4395   2.197   1.657   1.970  0.1239  0.1731 -0.6492
    1SOL    MW4 4396   2.276   1.675   2.001  0.1147 -0.2629 -0.3796
    1SOL     OW 4397   2.288   1.931   1.889  0.4682  0.3675 -0.4878
    1SOL    HW2 4398   2.350   1.991   1.929  0.3398  0.1595  0.0259
    1SOL    HW3 4399   2.316   1.844   1.917 -0.7231  0.3478  0.6890
    1SOL    MW4 4400   2.300   1.927   1.898  0.2942  0.3375 -0.2648
    1SOL     OW 4401   2.458   2.113   1.996 -0.1003 -0.2028  0.0131
    1SOL    HW2 4402   2.527   2.066   1.949 -0.0835 -0.5033  0.3322
    1SOL    HW3 4403   2.455   2.199   1.955 -0.1579 -0.4932 -0.6089
    1SOL    MW4 4404   2.466   2.118   1.984 -0.1056 -0.2809 -0.0268
    1SOL     OW 4405   2.449   2.362   1.872 -0.1472  0.1770 -0.3767
    1SOL    HW2 4406   2.525   2.396   1.920 -0.0783  0.0268 -0.3792
    1SOL    HW3 4407   2.374   2.406   1.911 -0.1752 -0.5884  0.4435
    1SOL    MW4 4408   2.449   2.372   1.883 -0.1416  0.0563 -0.2688
    1SOL     OW 4409   2.173   2.476   1.954  0.4843 -0.5669 -0.0212
    1SOL    HW2 4410   2.176   2.475   2.050 -0.4562 -0.9668  0.0103
    1SOL    HW3 4411   2.155   2.568   1.932  1.1510 -0.3921  0.1723
    1SOL    MW4 4412   2.171   2.488   1.964  0.4482 -0.5965  0.0085
    1SOL     OW 4413   2.212   2.732   1.853  0.0907  0.1864 -0.0460
    1SOL    HW2 4414   2.140   2.788   1.882 -1.1479 -0.6650 -1.4405
    1SOL    HW3 4415   2.215   2.743   1.758  2.1711  0.6314  0.0557
    1SOL    MW4 4416   2.203   2.741   1.845  0.2019  0.1326 -0.2166
    1SOL     OW 4417   2.457   2.797   1.950  0.0598 -0.0282  0.0636
    1SOL    HW2 4418   2.455   2.890   1.931 -1.1377 -0.0090  0.2114
    1SOL    HW3 4419   2.367   2.767   1.934  0.2095 -0.9692  0.8841
    1SOL    MW4 4420   2.445   2.805   1.945 -0.0784 -0.1497  0.1913
    1SOL     OW 4421   2.433   3.049   1.871  0.2362 -0.1249  0.0862
    1SOL    HW2 4422   2.350   3.092   1.890 -0.2886 -0.6895 -0.8819
    1SOL    HW3 4423   2.454   3.075   1.781  0.9475 -0.2505  0.2078
    1SOL    MW4 4424   2.425   3.058   1.861  0.2606 -0.2155 -0.0254
    1SOL     OW 4425   2.226   3.239   1.926  0.0132 -0.1456  0.0961
    1SOL    HW2 4426   2.217   3.239   2.021 -1.7202 -0.3653 -0.0503
    1SOL    HW3 4427   2.139   3.218   1.893  0.6608 -0.3903 -1.5424
    1SOL    MW4 4428   2.214   3.236   1.934 -0.1299 -0.2069 -0.1394
    1SOL     OW 4429   2.192   3.502   1.857  0.0990  0.0179  0.2669
    1SOL    HW2 4430   2.200   3.418   1.902 -1.6459 -0.4877 -0.3471
    1SOL    HW3 4431   2.125   3.549   1.907  0.1206  0.5255 -0.1774
    1SOL    MW4 4432   2.184   3.497   1.870 -0.1283  0.0184  0.1272
    1SOL     OW 4433   2.448   3.631   1.941 -0.2620 -0.4898  0.5259
    1SOL    HW2 4434   2.442   3.624   2.037 -0.8581 -1.2280  0.4364
    1SOL    HW3 4435   2.362   3.604   1.910  0.2795 -1.2813 -0.2772
    1SOL    MW4 4436   2.436   3.627   1.950 -0.2692 -0.6917  0.4082
    1SOL     OW 4437   2.461   3.896   1.842  0.1160  0.0461  0.4013
    1SOL    HW2 4438   2.389   3.946   1.880  0.0954 -0.3543  0.8957
    1SOL    HW3 4439   2.454   3.809   1.883  0.4050 -0.2294 -0.1340
    1SOL    MW4 4440   2.450   3.891   1.853  0.1516 -0.0432  0.3959
    1SOL     OW 4441   2.240   4.011   1.938  0.4401 -0.0674  0.2231
    1SOL    HW2 4442   2.233   4.012   2.034  1.4333  0.0913  0.3030
    1SOL    HW3 4443   2.236   4.103   1.913 -1.9163 -0.2166 -0.0738
    1SOL    MW4 4444   2.239   4.023   1.947  0.2604 -0.0663  0.1943
    1SOL     OW 4445   2.233   4.264   1.838 -0.8868 -0.4593  0.4059
    1SOL    HW2 4446   2.324   4.285   1.862 -1.0636  0.5102  0.2240
    1SOL    HW3 4447   2.232   4.267   1.742 -1.1353 -0.3628  0.4114
    1SOL    MW4 4448   2.245   4.267   1.828 -0.9432 -0.3185  0.3825
    1SOL     OW 4449   2.478   4.375   1.949  0.0038 -0.5110 -0.2865
    1SOL    HW2 4450   2.470   4.375   2.044  1.0509  1.3981 -0.1629
    1SOL    HW3 4451   2.567   4.347   1.932  0.0520 -0.1469 -0.6615
    1SOL    MW4 4452   2.488   4.372   1.959  0.1483 -0.2112 -0.3197
    1SOL     OW 4453   2.960   4.651   1.880  0.0706  0.3243  0.4628
    1SOL    HW2 4454   3.038   4.700   1.907 -0.1361  0.3908  0.9479
    1SOL    HW3 4455   2.963   4.571   1.931  1.0572 -0.7536 -1.2153
    1SOL    MW4 4456   2.971   4.647   1.890  0.1736  0.1907  0.3055
    1SOL     OW 4457   2.706   0.084   1.925 -0.1822  0.1045 -0.0926
    1SOL    HW2 4458   2.697   0.109   2.017 -1.6669  0.2744 -0.2570
    1SOL    HW3 4459   2.794   0.049   1.918 -0.8859 -2.2264  1.9574
    1SOL    MW4 4460   2.716   0.083   1.937 -0.4711 -0.1806  0.1562
    1SOL     OW 4461   2.728   0.337   1.821  0.1140  0.4606  0.1114
    1SOL    HW2 4462   2.789   0.388   1.875 -0.2827  1.1159 -0.0583
    1SOL    HW3 4463   2.730   0.249   1.859 -0.7367  1.1021  1.6768
    1SOL    MW4 4464   2.736   0.332   1.833 -0.0505  0.6317  0.2958
    1SOL     OW 4465   2.900   0.522   1.936 -0.3834 -0.4506 -0.0789
    1SOL    HW2 4466   2.987   0.493   1.912 -0.5892 -0.5649 -0.7021
    1SOL    HW3 4467   2.891   0.608   1.894 -0.5455 -0.4115  0.0335
    1SOL    MW4 4468   2.910   0.530   1.928 -0.4320 -0.4606 -0.1463
    1SOL     OW 4469   2.902   0.779   1.828 -0.1745 -0.1034 -0.2102
    1SOL    HW2 4470   2.970   0.813   1.886 -0.4955 -0.5861  0.4538
    1SOL    HW3 4471   2.820   0.802   1.870 -0.4331  0.5056 -1.0259
    1SOL    MW4 4472   2.900   0.786   1.841 -0.2511 -0.0867 -0.2301
    1SOL     OW 4473   2.685   0.877   1.954 -0.1157 -0.4467  0.2936
    1SOL    HW2 4474   2.685   0.965   1.916 -0.9747  0.0431  1.3931
    1SOL    HW3 4475   2.607   0.835   1.918  0.0690 -0.6228  0.0947
    1SOL    MW4 4476   2.675   0.883   1.944 -0.2048 -0.4054  0.4125
    1SOL     OW 4477   2.693   1.146   1.857  0.5692  0.3951  0.2736
    1SOL    HW2 4478   2.618   1.193   1.894  1.6934  2.0337  0.5162
    1SOL    HW3 4479   2.697   1.174   1.766  1.6327  1.2966  0.5869
    1SOL    MW4 4480   2.684   1.156   1.850  0.8578  0.7302  0.3470
    1SOL     OW 4481   2.919   1.273   1.976 -0.1452  0.5042  0.1255
    1SOL    HW2 4482   2.912   1.361   1.939  1.2636  0.2837 -0.7134
    1SOL    HW3 4483   2.846   1.225   1.936 -0.4832  1.1002  0.0231
    1SOL    MW4 4484   2.908   1.278   1.966 -0.0038  0.5537  0.0015
    1SOL     OW 4485   2.908   1.531   1.858  0.5682  0.2865  0.2798
    1SOL    HW2 4486   2.988   1.572   1.890 -0.1640  1.3992  0.7182
    1SOL    HW3 4487   2.921   1.523   1.763  1.5957 -0.4582  0.4789
    1SOL    MW4 4488   2.920   1.535   1.850  0.6070  0.3351  0.3639
    1SOL     OW 4489   2.667   1.669   1.930 -0.1531  0.0969  0.5221
    1SOL    HW2 4490   2.750   1.630   1.905 -0.4831 -0.3482  0.1257
    1SOL    HW3 4491   2.601   1.603   1.909 -0.5188  0.0669  1.7297
    1SOL    MW4 4492   2.669   1.655   1.924 -0.2449  0.0343  0.6292
    1SOL     OW 4493   2.661   1.940   1.888  0.5688  0.2916 -0.1421
    1SOL    HW2 4494   2.745   1.969   1.923  1.7646 -0.4759 -2.2845
    1SOL    HW3 4495   2.658   1.847   1.906 -0.2851  0.4911  0.8049
    1SOL    MW4 4496   2.672   1.932   1.895  0.6139  0.2166 -0.2998
    1SOL     OW 4497   2.907   2.041   1.975  0.0548  0.3150 -0.2418
    1SOL    HW2 4498   2.923   2.035   2.069  0.8343  1.0810 -0.3205
    1SOL    HW3 4499   2.984   2.002   1.935 -0.9441 -1.4093 -0.5671
    1SOL    MW4 4500   2.919   2.035   1.982  0.0257  0.1886 -0.2950
    1SOL     OW 4501   2.892   2.307   1.862  0.1172  0.1130 -0.0631
    1SOL    HW2 4502   2.968   2.353   1.898 -0.3829  0.9648 -0.0896
    1SOL    HW3 4503   2.896   2.220   1.902  0.6747  0.3988  0.5201
    1SOL    MW4 4504   2.903   2.301   1.872  0.1249  0.2630  0.0104
    1SOL     OW 4505   2.691   2.458   1.982 -0.7292  0.0633  0.2950
    1SOL    HW2 4506   2.701   2.541   1.936  2.0977  1.1861  2.7562
    1SOL    HW3 4507   2.754   2.399   1.940 -1.4760 -0.3180 -0.2991
    1SOL    MW4 4508   2.700   2.461   1.970 -0.4547  0.1612  0.5413
    1SOL     OW 4509   2.731   2.730   1.882 -0.4132  0.0427  0.2138
    1SOL    HW2 4510   2.645   2.760   1.911 -0.3209  1.4452 -0.9225
    1SOL    HW3 4511   2.724   2.727   1.786  0.5394 -0.6552  0.1612
    1SOL    MW4 4512   2.718   2.733   1.873 -0.2754  0.1359  0.0570
    1SOL     OW 4513   2.961   2.850   1.923  0.1675  0.0543  0.3276
    1SOL    HW2 4514   2.952   2.936   1.882  0.0980  1.1252  2.5425
    1SOL    HW3 4515   2.877   2.808   1.906 -0.5234  1.1728  0.8897
    1SOL    MW4 4516   2.949   2.856   1.915  0.0670  0.3431  0.6939
    1SOL     OW 4517   2.914   3.129   1.856  0.2179 -0.2394 -0.3710
    1SOL    HW2 4518   2.985   3.167   1.907  0.2854 -1.1532  0.2419
    1SOL    HW3 4519   2.834   3.160   1.899  0.2705 -0.6507  0.0270
    1SOL    MW4 4520   2.913   3.138   1.868  0.2339 -0.4144 -0.2376
    1SOL     OW 4521   2.665   3.209   1.992 -0.0106  0.3125 -0.0910
    1SOL    HW2 4522   2.644   3.300   1.970  0.9171  0.0189 -2.2890
    1SOL    HW3 4523   2.585   3.160   1.970 -0.5986  0.5959  1.3247
    1SOL    MW4 4524   2.651   3.215   1.986  0.0341  0.3111 -0.1943
    1SOL     OW 4525   2.653   3.456   1.865 -0.1890  0.1357  0.2724
    1SOL    HW2 4526   2.738   3.475   1.905  0.3440  0.5102 -1.0054
    1SOL    HW3 4527   2.599   3.532   1.885  0.1375  0.4101  0.1299
    1SOL    MW4 4528   2.657   3.468   1.873 -0.0756  0.2215  0.0852
    1SOL     OW 4529   2.886   3.555   1.994  0.3384  0.0022 -0.2808
    1SOL    HW2 4530   2.904   3.546   2.088  0.4897 -2.0221 -0.4769
    1SOL    HW3 4531   2.972   3.547   1.952 -0.0651 -2.1106 -0.7573
    1SOL    MW4 4532   2.900   3.553   2.001  0.3049 -0.5436 -0.3695
    1SOL     OW 4533   2.896   3.825   1.883 -0.1076 -0.3829  0.0467
    1SOL    HW2 4534   2.902   3.734   1.912 -0.9997 -0.5929 -0.4442
    1SOL    HW3 4535   2.920   3.823   1.791  0.7994  0.0174  0.2658
    1SOL    MW4 4536   2.900   3.813   1.875 -0.1059 -0.3579  0.0107
    1SOL     OW 4537   2.678   3.997   1.971  0.2672 -0.2108  0.1974
    1SOL    HW2 4538   2.755   3.949   1.941  0.8998  1.4130 -0.8074
    1SOL    HW3 4539   2.605   3.958   1.923  0.2892 -2.3152  1.7511
    1SOL    MW4 4540   2.679   3.985   1.961  0.3536 -0.2742  0.2699
    1SOL     OW 4541   2.712   4.251   1.877 -0.3892  0.1817  0.6820
    1SOL    HW2 4542   2.704   4.168   1.924  0.1964 -0.2146  0.0867
    1SOL    HW3 4543   2.702   4.227   1.784  2.8844  0.3074  0.2524
    1SOL    MW4 4544   2.710   4.237   1.871  0.1199  0.1459  0.5468
    1SOL     OW 4545   2.943   4.378   1.960 -0.6289  0.0445 -0.1315
    1SOL    HW2 4546   2.935   4.370   2.055 -0.8352  0.5127 -0.1055
    1SOL    HW3 4547   2.859   4.347   1.927 -0.3289 -0.7047 -0.1979
    1SOL    MW4 4548   2.931   4.373   1.969 -0.6163  0.0072 -0.1369
    1SOL     OW 4549   3.361   4.618   1.884 -0.5522  0.0881  0.3885
    1SOL    HW2 4550   3.370   4.533   1.927  0.3658 -0.0200  0.0147
    1SOL    HW3 4551   3.376   4.599   1.791  1.1828  0.8827  0.4825
    1SOL    MW4 4552   3.365   4.604   1.877 -0.2024  0.1788  0.3515
    1SOL     OW 4553   3.173   0.130   1.956  0.0157  0.1257  0.6473
    1SOL    HW2 4554   3.160   0.112   2.049  1.7779 -0.5619  0.7885
    1SOL    HW3 4555   3.249   0.077   1.932 -0.1050  0.6933 -1.0613
    1SOL    MW4 4556   3.181   0.121   1.965  0.2325  0.1098  0.4405
    1SOL     OW 4557   3.149   0.397   1.871  0.4040  0.7742  0.4402
    1SOL    HW2 4558   3.153   0.305   1.898 -0.6236  0.1877 -1.3018
    1SOL    HW3 4559   3.137   0.393   1.776 -0.1200  2.7194  0.4064
    1SOL    MW4 4560   3.148   0.384   1.862  0.1991  0.9535  0.2059
    1SOL     OW 4561   3.373   0.520   1.976 -0.2731  0.3527 -0.3092
    1SOL    HW2 4562   3.451   0.469   1.955 -0.2772 -0.5171  1.6320
    1SOL    HW3 4563   3.301   0.470   1.936  0.0677  0.6126 -1.2400
    1SOL    MW4 4564   3.374   0.506   1.968 -0.2286  0.2722 -0.1758
    1SOL     OW 4565   3.345   0.772   1.851  0.1258  0.6203 -0.1622
    1SOL    HW2 4566   3.265   0.795   1.898  0.2054  0.0820  0.2430
    1SOL    HW3 4567   3.368   0.685   1.884  1.6969  1.3859  0.7959
    1SOL    MW4 4568   3.338   0.763   1.861  0.3436  0.6503  0.0175
    1SOL     OW 4569   3.110   0.887   1.973 -0.1093  0.0155  0.3316
    1SOL    HW2 4570   3.097   0.897   2.067 -1.2339 -1.4902  0.3568
    1SOL    HW3 4571   3.122   0.976   1.940 -3.2976  0.8783  1.3696
    1SOL    MW4 4572   3.110   0.900   1.981 -0.6785 -0.0694  0.4718
    1SOL     OW 4573   3.136   1.141   1.862  0.3923 -0.5793 -0.2609
    1SOL    HW2 4574   3.211   1.180   1.906 -0.0478 -1.0285  0.8893
    1SOL    HW3 4575   3.060   1.185   1.901 -0.0506 -1.7529  0.1977
    1SOL    MW4 4576   3.136   1.152   1.873  0.2756 -0.7935 -0.0486
    1SOL     OW 4577   3.355   1.261   1.995 -0.4291 -0.3684 -0.2221
    1SOL    HW2 4578   3.338   1.279   2.088  0.5312 -0.1782 -0.0737
    1SOL    HW3 4579   3.345   1.347   1.953 -1.2385 -0.5244 -0.3599
    1SOL    MW4 4580   3.351   1.275   2.002 -0.4091 -0.3641 -0.2208
    1SOL     OW 4581   3.349   1.534   1.844  0.3697 -0.1598  0.1182
    1SOL    HW2 4582   3.429   1.581   1.869  0.8968 -0.9135 -0.1255
    1SOL    HW3 4583   3.278   1.581   1.889  1.1193 -0.4118  1.6125
    1SOL    MW4 4584   3.350   1.546   1.853  0.5383 -0.2925  0.2832
    1SOL     OW 4585   3.140   1.650   1.977 -0.2651  0.3608  0.1339
    1SOL    HW2 4586   3.148   1.655   2.072  0.0490  0.6827  0.0920
    1SOL    HW3 4587   3.144   1.742   1.948 -1.5049  0.3495 -0.0950
    1SOL    MW4 4588   3.141   1.663   1.985 -0.3872  0.4017  0.0981
    1SOL     OW 4589   3.144   1.907   1.880  0.3818  0.1596  0.4533
    1SOL    HW2 4590   3.207   1.974   1.907  0.4606 -0.6718  2.3629
    1SOL    HW3 4591   3.150   1.906   1.784  0.8873  2.3847  0.4303
    1SOL    MW4 4592   3.153   1.916   1.871  0.4590  0.3436  0.7023
    1SOL     OW 4593   3.329   2.073   1.972  0.1228 -0.1299  0.0875
    1SOL    HW2 4594   3.401   2.020   1.937 -0.9059 -1.1617 -0.4842
    1SOL    HW3 4595   3.342   2.160   1.933  1.4791 -0.1029  0.5703
    1SOL    MW4 4596   3.340   2.078   1.962  0.1659 -0.2625  0.0757
    1SOL     OW 4597   3.371   2.337   1.849 -0.2282  0.2681  0.2692
    1SOL    HW2 4598   3.284   2.372   1.867  0.3160  2.1795 -0.7169
    1SOL    HW3 4599   3.375   2.332   1.753 -0.1177 -2.1129  0.3613
    1SOL    MW4 4600   3.360   2.341   1.839 -0.1419  0.2062  0.1514
    1SOL     OW 4601   3.117   2.420   1.943 -0.1860  0.0965 -0.6107
    1SOL    HW2 4602   3.128   2.427   2.038 -1.7285  1.9231 -0.5338
    1SOL    HW3 4603   3.117   2.511   1.912 -1.0874 -0.4208 -2.1919
    1SOL    MW4 4604   3.119   2.433   1.951 -0.5083  0.2689 -0.8093
    1SOL     OW 4605   3.155   2.670   1.851  0.1444 -0.2565 -0.4422
    1SOL    HW2 4606   3.081   2.727   1.871  0.6720  0.4865 -0.5782
    1SOL    HW3 4607   3.161   2.673   1.755  0.8205  0.3016 -0.3899
    1SOL    MW4 4608   3.146   2.678   1.841  0.3033 -0.0851 -0.4534
    1SOL     OW 4609   3.360   2.849   1.956  0.3482  0.0258  0.0483
    1SOL    HW2 4610   3.371   2.816   2.046  0.2787  2.2564  0.8998
    1SOL    HW3 4611   3.287   2.797   1.921  0.6711 -1.1737  1.1251
    1SOL    MW4 4612   3.352   2.838   1.963  0.3817  0.1614  0.3028
    1SOL     OW 4613   3.338   3.123   1.865  0.2274  0.0112 -0.2041
    1SOL    HW2 4614   3.415   3.170   1.896  0.0914  0.6791 -0.8784
    1SOL    HW3 4615   3.346   3.035   1.903  0.7711  0.4013  0.5904
    1SOL    MW4 4616   3.349   3.117   1.874  0.2809  0.1509 -0.1882
    1SOL     OW 4617   3.125   3.263   1.978 -0.3322  0.0504  0.0584
    1SOL    HW2 4618   3.130   3.354   1.950 -1.6917 -0.3346 -1.4864
    1SOL    HW3 4619   3.197   3.220   1.932  0.6485  0.4284  1.2072
    1SOL    MW4 4620   3.135   3.269   1.968 -0.3819  0.0498  0.0061
    1SOL     OW 4621   3.145   3.535   1.875  0.2591 -0.3937  0.3968
    1SOL    HW2 4622   3.228   3.575   1.901  0.6298 -1.0893  0.3046
    1SOL    HW3 4623   3.152   3.525   1.780 -0.7562  1.3833  0.1098
    1SOL    MW4 4624   3.157   3.539   1.866  0.1740 -0.2513  0.3467
    1SOL     OW 4625   3.382   3.619   1.966 -0.0055  0.0473  0.0426
    1SOL    HW2 4626   3.449   3.565   1.924 -0.1790 -0.2813  0.1856
    1SOL    HW3 4627   3.402   3.708   1.937 -0.5060 -0.2522 -1.2537
    1SOL    MW4 4628   3.394   3.623   1.957 -0.0944 -0.0355 -0.1094
    1SOL     OW 4629   3.361   3.891   1.860  0.0420  0.0153 -0.0040
    1SOL    HW2 4630   3.271   3.909   1.888 -0.1295 -0.5115 -0.2111
    1SOL    HW3 4631   3.353   3.868   1.767  0.8005  3.2831 -0.9192
    1SOL    MW4 4632   3.348   3.890   1.852  0.1194  0.3772 -0.1521
    1SOL     OW 4633   3.105   3.987   1.948  0.2224 -0.1720  0.3666
    1SOL    HW2 4634   3.111   3.983   2.043 -2.3117 -0.6832  0.5547
    1SOL    HW3 4635   3.030   3.931   1.927 -0.6416  1.7130 -1.7430
    1SOL    MW4 4636   3.096   3.979   1.958 -0.2260  0.0093  0.1130
    1SOL     OW 4637   3.175   4.227   1.852 -0.7038  0.6432 -0.2912
    1SOL    HW2 4638   3.167   4.138   1.886  0.5826  1.3199  1.8656
    1SOL    HW3 4639   3.096   4.271   1.881 -0.4086  0.7409  0.3834
    1SOL    MW4 4640   3.164   4.221   1.860 -0.4952  0.7453  0.0825
    1SOL     OW 4641   3.390   4.369   1.986  0.4199 -0.1477  0.5352
    1SOL    HW2 4642   3.468   4.334   1.944 -0.7374 -1.4357 -0.5818
    1SOL    HW3 4643   3.317   4.321   1.946 -1.1474  2.8240 -0.3360
    1SOL    MW4 4644   3.391   4.358   1.975  0.0606  0.0739  0.2729
    1SOL     OW 4645   3.806   4.648   1.910  0.1035  0.1126 -0.1008
    1SOL    HW2 4646   3.786   4.559   1.938  0.3167 -0.1204 -0.6778
    1SOL    HW3 4647   3.734   4.701   1.946 -0.1657 -0.3296  0.0195
    1SOL    MW4 4648   3.794   4.644   1.918  0.0961  0.0238 -0.1609
    1SOL     OW 4649   3.581   0.126   2.005 -0.0199 -0.3079  0.2617
    1SOL    HW2 4650   3.570   0.131   2.100  0.0669 -1.4559  0.3413
    1SOL    HW3 4651   3.502   0.082   1.974  0.6181 -1.2405 -0.0452
    1SOL    MW4 4652   3.569   0.121   2.013  0.0758 -0.5824  0.2317
    1SOL     OW 4653   3.573   0.370   1.871 -0.0842  0.2059  0.1237
    1SOL    HW2 4654   3.588   0.283   1.906 -2.5617  0.5608  2.2303
    1SOL    HW3 4655   3.557   0.356   1.777  0.5596 -1.4672  0.2567
    1SOL    MW4 4656   3.573   0.357   1.863 -0.3264  0.0320  0.4194
    1SOL     OW 4657   3.784   0.506   1.976  0.3113  0.3458  0.1005
    1SOL    HW2 4658   3.795   0.596   1.944 -0.8896  0.2482 -0.5994
    1SOL    HW3 4659   3.702   0.476   1.936 -0.4142 -0.3197  2.0549
    1SOL    MW4 4660   3.775   0.514   1.966  0.0572  0.2451  0.2662
    1SOL     OW 4661   3.805   0.773   1.894  0.3247 -0.2001 -0.1758
    1SOL    HW2 4662   3.722   0.817   1.914  0.8238  0.6034  0.1968
    1SOL    HW3 4663   3.817   0.787   1.800  1.4103  2.1793  0.2654
    1SOL    MW4 4664   3.795   0.781   1.884  0.5338  0.2198 -0.0684
    1SOL     OW 4665   3.563   0.874   1.959  0.4298 -0.1136  0.2148
    1SOL    HW2 4666   3.568   0.961   1.921 -0.0810  0.1188  0.6848
    1SOL    HW3 4667   3.479   0.839   1.929 -0.3588  0.3916  1.8041
    1SOL    MW4 4668   3.553   0.881   1.950  0.2587 -0.0163  0.4865
    1SOL     OW 4669   3.587   1.136   1.865  0.5721  0.5061  0.2668
    1SOL    HW2 4670   3.513   1.188   1.895 -0.6466 -1.6030  0.9927
    1SOL    HW3 4671   3.602   1.165   1.775 -0.4201  1.7044  0.4773
    1SOL    MW4 4672   3.579   1.147   1.857  0.2804  0.3859  0.3903
    1SOL     OW 4673   3.774   1.282   2.004  0.3449 -0.4903 -0.4540
    1SOL    HW2 4674   3.769   1.271   2.099 -0.9548  1.4527 -0.2535
    1SOL    HW3 4675   3.702   1.229   1.970  0.8576 -1.2465 -0.3637
    1SOL    MW4 4676   3.764   1.274   2.012  0.2408 -0.3338 -0.4156
    1SOL     OW 4677   3.782   1.525   1.869  0.1115  0.3669 -0.1513
    1SOL    HW2 4678   3.864   1.566   1.898  0.9982 -0.9669 -0.7503
    1SOL    HW3 4679   3.779   1.441   1.915 -0.9964  0.4612 -0.0260
    1SOL    MW4 4680   3.792   1.519   1.879  0.0823  0.2034 -0.2137
    1SOL     OW 4681   3.558   1.667   1.935  0.5829 -0.1069  0.0831
    1SOL    HW2 4682   3.570   1.759   1.910  0.3961 -0.4421 -1.2881
    1SOL    HW3 4683   3.640   1.624   1.910  0.0806 -0.6049 -0.7571
    1SOL    MW4 4684   3.570   1.673   1.928  0.4921 -0.2168 -0.2086
    1SOL     OW 4685   3.571   1.939   1.878  0.3124  0.3578  0.5397
    1SOL    HW2 4686   3.656   1.968   1.910  1.0369  0.7161 -1.6550
    1SOL    HW3 4687   3.576   1.948   1.783 -2.0881  0.1362  0.3553
    1SOL    MW4 4688   3.583   1.944   1.870  0.0913  0.3760  0.2258
    1SOL     OW 4689   3.816   2.047   1.956 -0.3347 -0.3513  0.1711
    1SOL    HW2 4690   3.901   2.012   1.929 -1.0730 -0.9964 -1.4181
    1SOL    HW3 4691   3.822   2.140   1.937  0.8447  0.0387  2.3122
    1SOL    MW4 4692   3.828   2.054   1.950 -0.2766 -0.3848  0.2439
    1SOL     OW 4693   3.838   2.310   1.888  0.1517 -0.2192  0.4908
    1SOL    HW2 4694   3.900   2.375   1.922 -0.0740  1.0653 -1.4474
    1SOL    HW3 4695   3.752   2.347   1.906 -0.0060 -0.7174  0.7571
    1SOL    MW4 4696   3.835   2.324   1.895  0.1013 -0.1156  0.2702
    1SOL     OW 4697   3.610   2.424   1.940 -0.3146  0.1763  0.0765
    1SOL    HW2 4698   3.599   2.519   1.931  0.0585  0.0503 -2.0897
    1SOL    HW3 4699   3.527   2.388   1.909 -1.0355 -0.1803  2.3468
    1SOL    MW4 4700   3.597   2.432   1.935 -0.3603  0.1125  0.0901
    1SOL     OW 4701   3.590   2.711   1.890  0.4023 -0.1679 -0.0126
    1SOL    HW2 4702   3.668   2.763   1.910  0.6647 -1.3796  2.2453
    1SOL    HW3 4703   3.519   2.759   1.934  0.2106 -0.2235 -0.2648
    1SOL    MW4 4704   3.591   2.724   1.898  0.4115 -0.3355  0.2521
    1SOL     OW 4705   3.827   2.827   1.947 -0.3204  0.3575  0.0019
    1SOL    HW2 4706   3.845   2.835   2.041 -2.0071 -1.8407  0.5666
    1SOL    HW3 4707   3.801   2.915   1.920 -1.0836  0.7407  1.8938
    1SOL    MW4 4708   3.826   2.840   1.956 -0.6437  0.1180  0.3260
    1SOL     OW 4709   3.792   3.078   1.843 -0.1114  0.5044 -0.2952
    1SOL    HW2 4710   3.723   3.135   1.879 -0.6495 -0.7097  0.6253
    1SOL    HW3 4711   3.794   3.099   1.750 -0.8911  1.4306 -0.1142
    1SOL    MW4 4712   3.783   3.089   1.836 -0.2854  0.4661 -0.1498
    1SOL     OW 4713   3.596   3.240   1.942  0.3198 -0.2105  0.2461
    1SOL    HW2 4714   3.590   3.245   2.038  1.0778  0.7453  0.2473
    1SOL    HW3 4715   3.606   3.330   1.914 -0.1160 -0.4735 -0.7597
    1SOL    MW4 4716   3.597   3.252   1.951  0.3624 -0.1190  0.1135
    1SOL     OW 4717   3.601   3.496   1.837 -0.0696  0.0669 -0.1869
    1SOL    HW2 4718   3.684   3.524   1.876  0.0905  1.2192 -1.3399
    1SOL    HW3 4719   3.614   3.505   1.743 -1.3468 -0.2101 -0.4024
    1SOL    MW4 4720   3.614   3.501   1.830 -0.2170  0.1826 -0.3673
    1SOL     OW 4721   3.816   3.575   1.983 -0.2192 -0.0417  0.2185
    1SOL    HW2 4722   3.889   3.542   1.930 -1.6795 -0.5277 -1.5397
    1SOL    HW3 4723   3.811   3.668   1.961 -0.2656 -0.0527  0.1834
    1SOL    MW4 4724   3.825   3.583   1.973 -0.4179 -0.1073 -0.0181
    1SOL     OW 4725   3.790   3.836   1.918  0.8525 -0.1238  0.1896
    1SOL    HW2 4726   3.729   3.906   1.941  0.9559  0.0624 -0.0920
    1SOL    HW3 4727   3.786   3.832   1.822  1.1012 -0.2772  0.1856
    1SOL    MW4 4728   3.781   3.845   1.908  0.8988 -0.1194  0.1519
    1SOL     OW 4729   3.577   3.999   2.020  0.1339 -0.0092 -0.2554
    1SOL    HW2 4730   3.563   3.989   2.114 -1.2894 -0.8592 -0.5549
    1SOL    HW3 4731   3.499   3.961   1.980  1.8745 -2.0076 -1.8562
    1SOL    MW4 4732   3.565   3.993   2.027  0.1757 -0.3848 -0.5059
    1SOL     OW 4733   3.600   4.237   1.897  0.0142 -0.1923  0.2798
    1SOL    HW2 4734   3.655   4.289   1.955  0.7084  0.9879 -1.4030
    1SOL    HW3 4735   3.584   4.156   1.946  4.2180 -1.1001  0.4012
    1SOL    MW4 4736   3.605   4.233   1.911  0.6604 -0.1559  0.0737
    1SOL     OW 4737   3.799   4.397   2.005 -0.1075  0.0961 -0.2851
    1SOL    HW2 4738   3.797   4.392   2.101  0.0070 -1.2213 -0.3330
    1SOL    HW3 4739   3.873   4.342   1.980 -0.8684 -0.5370 -1.1747
    1SOL    MW4 4740   3.808   4.389   2.015 -0.1929 -0.1612 -0.4089
    1SOL     OW 4741   4.278   4.656   1.905 -0.4430  0.2307 -0.0262
    1SOL    HW2 4742   4.207   4.718   1.924  0.5788  0.9890  1.4193
    1SOL    HW3 4743   4.354   4.691   1.952  0.7978 -0.7751 -1.2452
    1SOL    MW4 4744   4.278   4.669   1.914 -0.1445  0.1979  0.0037
    1SOL     OW 4745   4.050   0.127   1.961 -0.2190 -0.1936  0.0730
    1SOL    HW2 4746   4.032   0.125   2.055 -0.2236 -2.1572  0.0476
    1SOL    HW3 4747   3.985   0.068   1.923  0.9284 -0.8084 -0.9550
    1SOL    MW4 4748   4.039   0.119   1.968 -0.0677 -0.5338 -0.0659
    1SOL     OW 4749   4.007   0.383   1.850 -0.3989 -0.0746  0.2163
    1SOL    HW2 4750   4.006   0.299   1.896 -0.7282  0.8497  1.9280
    1SOL    HW3 4751   3.927   0.426   1.878  0.2264  1.1945  0.0519
    1SOL    MW4 4752   3.996   0.377   1.859 -0.3600  0.2148  0.4205
    1SOL     OW 4753   4.246   0.489   1.942  0.2341 -0.2342  0.0174
    1SOL    HW2 4754   4.249   0.467   2.036 -2.4781 -0.0317  0.1893
    1SOL    HW3 4755   4.160   0.458   1.913  0.4686  1.0168 -2.0892
    1SOL    MW4 4756   4.235   0.482   1.951 -0.0930 -0.0424 -0.2377
    1SOL     OW 4757   4.243   0.773   1.933 -0.2734  0.5957 -0.5337
    1SOL    HW2 4758   4.248   0.680   1.955  0.8960  0.3990 -1.5802
    1SOL    HW3 4759   4.244   0.775   1.837 -0.2774  1.6941 -0.5150
    1SOL    MW4 4760   4.244   0.761   1.923 -0.1197  0.7146 -0.6694
    1SOL     OW 4761   4.018   0.912   1.986 -0.1603 -0.7712  0.0346
    1SOL    HW2 4762   4.104   0.870   1.985 -0.4411 -1.4354  1.5889
    1SOL    HW3 4763   3.956   0.841   1.970 -0.4955 -0.5343  0.2659
    1SOL    MW4 4764   4.021   0.897   1.984 -0.2418 -0.8276  0.2701
    1SOL     OW 4765   3.983   1.142   1.862 -0.4469  0.3933  0.1952
    1SOL    HW2 4766   3.979   1.049   1.885 -0.2844 -0.0120 -1.3496
    1SOL    HW3 4767   3.902   1.179   1.897 -0.3977 -0.2725  1.0369
    1SOL    MW4 4768   3.972   1.134   1.869 -0.4189  0.2521  0.1024
    1SOL     OW 4769   4.204   1.321   2.007  0.1771 -0.2833 -0.0540
    1SOL    HW2 4770   4.198   1.326   2.102 -1.0244 -0.7517 -0.0923
    1SOL    HW3 4771   4.149   1.246   1.984  1.3988 -0.8920 -1.0258
    1SOL    MW4 4772   4.196   1.312   2.016  0.1802 -0.4256 -0.1874
    1SOL     OW 4773   4.279   1.566   1.892  0.0487  0.5454 -0.1606
    1SOL    HW2 4774   4.258   1.477   1.919  0.2620  0.5906  0.1596
    1SOL    HW3 4775   4.280   1.563   1.796  1.7587 -0.2097 -0.1385
    1SOL    MW4 4776   4.277   1.554   1.883  0.3023  0.4518 -0.1154
    1SOL     OW 4777   4.022   1.637   1.961  0.4559  0.1156 -0.3612
    1SOL    HW2 4778   4.039   1.646   2.054  0.7376  2.0787 -0.5770
    1SOL    HW3 4779   4.107   1.614   1.923  0.5853  0.4222 -0.2610
    1SOL    MW4 4780   4.036   1.635   1.968  0.5102  0.4151 -0.3765
    1SOL     OW 4781   4.044   1.899   1.876  0.1278 -0.2749  0.5086
    1SOL    HW2 4782   4.029   1.810   1.908 -0.1235 -0.6254 -0.5648
    1SOL    HW3 4783   4.062   1.888   1.782 -1.3543  0.9457  0.0734
    1SOL    MW4 4784   4.045   1.886   1.868 -0.1011 -0.1601  0.3097
    1SOL     OW 4785   4.263   2.059   1.966  0.3277 -0.2642 -0.2850
    1SOL    HW2 4786   4.249   2.068   2.060 -2.3420  0.1763 -0.6793
    1SOL    HW3 4787   4.201   1.991   1.939  0.8646 -0.1903 -1.7689
    1SOL    MW4 4788   4.253   2.051   1.975  0.0453 -0.1960 -0.5330
    1SOL     OW 4789   4.284   2.320   1.886 -0.1595 -0.3221 -0.1112
    1SOL    HW2 4790   4.281   2.228   1.913 -1.0801  0.2264  1.7376
    1SOL    HW3 4791   4.373   2.348   1.907 -0.0604 -0.6264 -0.1211
    1SOL    MW4 4792   4.295   2.312   1.892 -0.2680 -0.2899  0.1315
    1SOL     OW 4793   4.058   2.460   1.998  0.0469  0.1633  0.0541
    1SOL    HW2 4794   4.058   2.478   2.092 -0.8084 -0.1709  0.1215
    1SOL    HW3 4795   4.143   2.420   1.981 -1.2348 -3.3172  1.3958
    1SOL    MW4 4796   4.069   2.457   2.008 -0.2351 -0.3400  0.2401
    1SOL     OW 4797   4.082   2.725   1.851 -0.3183 -0.3959 -0.0117
    1SOL    HW2 4798   4.102   2.647   1.902 -0.9167 -0.9941 -0.6803
    1SOL    HW3 4799   3.992   2.746   1.875  0.1301  0.5913  0.8155
    1SOL    MW4 4800   4.073   2.718   1.861 -0.3386 -0.3448  0.0091
    1SOL     OW 4801   4.323   2.861   1.975  0.2780  0.3145 -0.0306
    1SOL    HW2 4802   4.330   2.845   2.069  0.6708 -0.9407 -0.2635
    1SOL    HW3 4803   4.241   2.818   1.949  0.2165  0.5791 -0.2749
    1SOL    MW4 4804   4.313   2.853   1.984  0.3219  0.1838 -0.0936
    1SOL     OW 4805   4.276   3.113   1.868  0.0270  0.2458 -0.3355
    1SOL    HW2 4806   4.191   3.143   1.899 -0.0745  1.0756 -1.3859
    1SOL    HW3 4807   4.283   3.023   1.900 -0.8891  0.4403  0.4426
    1SOL    MW4 4808   4.266   3.105   1.877 -0.1068  0.3808 -0.3713
    1SOL     OW 4809   4.020   3.191   1.950  0.5298  0.3009  0.0259
    1SOL    HW2 4810   4.007   3.212   2.042 -0.0877  1.4591 -0.3149
    1SOL    HW3 4811   3.945   3.136   1.927 -0.8413  2.2853 -0.4688
    1SOL    MW4 4812   4.008   3.187   1.959  0.2675  0.7155 -0.0843
    1SOL     OW 4813   4.028   3.440   1.845  0.0693  0.2358 -0.1246
    1SOL    HW2 4814   4.098   3.489   1.889 -0.3014 -0.5693  1.3846
    1SOL    HW3 4815   4.035   3.351   1.879 -0.4790 -0.3148 -1.4176
    1SOL    MW4 4816   4.038   3.435   1.855 -0.0525  0.0570 -0.0961
    1SOL     OW 4817   4.240   3.576   1.949  0.2295  0.3819  0.1643
    1SOL    HW2 4818   4.239   3.670   1.932  0.1598  0.6296  1.4978
    1SOL    HW3 4819   4.326   3.547   1.917  0.3851  0.9493  0.0628
    1SOL    MW4 4820   4.251   3.585   1.942  0.2413  0.4897  0.3269
    1SOL     OW 4821   4.236   3.862   1.881  0.0011  0.4825  0.1032
    1SOL    HW2 4822   4.318   3.908   1.899  1.3787 -1.7351 -0.2471
    1SOL    HW3 4823   4.238   3.846   1.786 -0.6178 -0.0119  0.1691
    1SOL    MW4 4824   4.247   3.866   1.871  0.1016  0.1247  0.0656
    1SOL     OW 4825   4.016   3.961   2.009 -0.1691  0.5474  0.2362
    1SOL    HW2 4826   4.091   3.932   1.957  0.2240 -0.8455  1.5287
    1SOL    HW3 4827   3.940   3.921   1.966 -0.3383  2.8855 -1.7428
    1SOL    MW4 4828   4.016   3.952   1.996 -0.1392  0.6719  0.1457
    1SOL     OW 4829   4.023   4.235   1.915  0.0889 -0.0009  0.1536
    1SOL    HW2 4830   4.100   4.288   1.936  0.2123  0.6204 -1.8346
    1SOL    HW3 4831   4.038   4.152   1.960  2.6374 -0.4311 -1.4082
    1SOL    MW4 4832   4.035   4.231   1.924  0.4416  0.0243 -0.3148
    1SOL     OW 4833   4.244   4.373   1.985  0.3063 -0.5456 -0.0957
    1SOL    HW2 4834   4.250   4.369   2.081 -0.2099  0.1467 -0.0306
    1SOL    HW3 4835   4.248   4.466   1.964  0.1409 -0.6754 -0.7287
    1SOL    MW4 4836   4.245   4.385   1.995  0.2165 -0.4716 -0.1706
    1SOL     OW 4837   0.218   0.002   2.381 -0.1003  0.4494 -0.0832
    1SOL    HW2 4838   0.223   0.010   2.476 -0.6114  0.4079 -0.0544
    1SOL    HW3 4839   0.303   0.036   2.350  0.4637 -0.4793  0.4370
    1SOL    MW4 4840   0.230   0.008   2.389 -0.0933  0.3214 -0.0107
    1SOL     OW 4841   4.465   0.089   2.280  0.5135 -0.2150 -0.0600
    1SOL    HW2 4842   4.551   0.056   2.305  0.1192 -1.2258 -0.0162
    1SOL    HW3 4843   4.468   0.090   2.184  1.2636  1.6240 -0.0378
    1SOL    MW4 4844   4.477   0.085   2.271  0.5603 -0.1058 -0.0510
    1SOL     OW 4845   4.456   0.353   2.373  0.1950 -0.3451 -0.0911
    1SOL    HW2 4846   4.538   0.389   2.339  0.8134 -0.1274  1.5800
    1SOL    HW3 4847   4.459   0.261   2.347  0.8554 -0.2830 -0.2682
    1SOL    MW4 4848   4.468   0.346   2.365  0.3638 -0.3082  0.1059
    1SOL     OW 4849   0.192   0.505   2.285  0.1012 -0.0843  0.3382
    1SOL    HW2 4850   0.274   0.463   2.311  0.6483  0.6299 -0.1981
    1SOL    HW3 4851   0.193   0.501   2.189 -0.4418  0.0134  0.3320
    1SOL    MW4 4852   0.203   0.499   2.276  0.1017  0.0228  0.2666
    1SOL     OW 4853   0.178   0.766   2.364  0.2922  0.1823 -0.2649
    1SOL    HW2 4854   0.217   0.768   2.452  1.4030  0.1683 -0.7535
    1SOL    HW3 4855   0.177   0.673   2.341 -0.1057  0.1763 -0.2167
    1SOL    MW4 4856   0.183   0.754   2.373  0.3863  0.1797 -0.3231
    1SOL     OW 4857   4.451   0.913   2.294  0.2740  0.1554 -0.0416
    1SOL    HW2 4858   4.535   0.876   2.321 -0.6044 -1.5090  0.4270
    1SOL    HW3 4859   4.457   0.918   2.198 -0.3306 -3.0530 -0.2915
    1SOL    MW4 4860   4.463   0.909   2.285  0.0777 -0.4874 -0.0129
    1SOL     OW 4861   4.447   1.177   2.355  0.3931  0.3052  0.2342
    1SOL    HW2 4862   4.482   1.186   2.443  1.3679  1.1631 -0.2245
    1SOL    HW3 4863   4.431   1.083   2.345  0.4554  0.1810  1.2484
    1SOL    MW4 4864   4.450   1.166   2.365  0.5302  0.4020  0.3076
    1SOL     OW 4865   0.179   1.305   2.237 -0.6003  0.1131  0.0207
    1SOL    HW2 4866   0.099   1.257   2.257 -0.3535 -1.1243 -1.7275
    1SOL    HW3 4867   0.183   1.305   2.141  1.7937 -0.4190  0.0746
    1SOL    MW4 4868   0.169   1.298   2.227 -0.2519 -0.1204 -0.2031
    1SOL     OW 4869   0.217   1.544   2.376  0.1127  0.0414  0.1368
    1SOL    HW2 4870   0.200   1.536   2.470  0.0404 -0.8799  0.0566
    1SOL    HW3 4871   0.203   1.455   2.342  0.9900  0.1810 -0.6056
    1SOL    MW4 4872   0.213   1.531   2.384  0.2189 -0.0618  0.0281
    1SOL     OW 4873   0.004   1.688   2.264  0.3537  0.1120 -0.5408
    1SOL    HW2 4874  -0.003   1.770   2.312 -0.4886  0.0881 -0.6023
    1SOL    HW3 4875   0.071   1.638   2.310  0.5403  0.6515 -0.2298
    1SOL    MW4 4876   0.012   1.692   2.276  0.2675  0.1801 -0.5078
    1SOL     OW 4877   4.463   1.909   2.413 -0.8611 -0.0727 -0.1872
    1SOL    HW2 4878   4.395   1.954   2.362 -1.7249 -1.5379 -0.3659
    1SOL    HW3 4879   4.542   1.962   2.401 -1.8347  1.3529 -0.4335
    1SOL    MW4 4880   4.464   1.922   2.405 -1.1034 -0.0780 -0.2437
    1SOL     OW 4881   0.187   2.054   2.315 -0.0575  0.1544 -0.0637
    1SOL    HW2 4882   0.270   2.015   2.342  1.4760  2.9170 -0.4791
    1SOL    HW3 4883   0.190   2.052   2.219  0.0048  1.1000 -0.0930
    1SOL    MW4 4884   0.199   2.049   2.306  0.1531  0.6437 -0.1225
    1SOL     OW 4885   0.246   2.323   2.373  0.3174 -0.3768 -0.3981
    1SOL    HW2 4886   0.206   2.308   2.458 -0.6089  1.5353 -0.4803
    1SOL    HW3 4887   0.244   2.238   2.330 -2.1383 -0.6581  0.2454
    1SOL    MW4 4888   0.241   2.310   2.378 -0.1289 -0.1619 -0.3242
    1SOL     OW 4889   0.014   2.426   2.280 -0.1000  0.4967  0.3133
    1SOL    HW2 4890   0.026   2.516   2.310 -1.0424  0.7706 -0.1047
    1SOL    HW3 4891   0.094   2.380   2.307 -0.0627  1.2163  1.4195
    1SOL    MW4 4892   0.026   2.432   2.287 -0.2194  0.6278  0.4041
    1SOL     OW 4893   0.037   2.699   2.342 -0.2244 -0.2484  0.2736
    1SOL    HW2 4894   0.035   2.707   2.437  1.2553 -0.6666  0.3469
    1SOL    HW3 4895   0.115   2.747   2.315  0.6698 -2.1054 -0.5186
    1SOL    MW4 4896   0.047   2.706   2.351  0.0888 -0.5486  0.1788
    1SOL     OW 4897   0.256   2.890   2.268  0.2545  0.3204 -0.8531
    1SOL    HW2 4898   0.339   2.849   2.291 -0.8605 -1.1872  0.6132
    1SOL    HW3 4899   0.243   2.866   2.176  0.3508 -1.4219 -0.4435
    1SOL    MW4 4900   0.265   2.881   2.259  0.1201 -0.1082 -0.6056
    1SOL     OW 4901   0.255   3.129   2.408 -0.4779 -0.2258 -0.1663
    1SOL    HW2 4902   0.188   3.178   2.360 -1.4521 -0.7936  0.6008
    1SOL    HW3 4903   0.252   3.041   2.370  0.2867 -0.0862 -0.5667
    1SOL    MW4 4904   0.246   3.124   2.397 -0.5056 -0.2823 -0.1178
    1SOL     OW 4905   0.041   3.232   2.259 -0.4062  0.2995  0.4663
    1SOL    HW2 4906   0.034   3.326   2.279  0.0734  0.4898 -0.2508
    1SOL    HW3 4907   0.052   3.229   2.164  1.5305 -0.3858  0.6975
    1SOL    MW4 4908   0.041   3.244   2.249 -0.0874  0.2339  0.4022
    1SOL     OW 4909   0.006   3.505   2.329 -0.2230  0.1038 -0.7274
    1SOL    HW2 4910   0.002   3.526   2.422  1.7633  0.0740 -0.6300
    1SOL    HW3 4911  -0.081   3.529   2.296 -1.3112 -0.8796  1.3207
    1SOL    MW4 4912  -0.006   3.511   2.337 -0.1049 -0.0298 -0.4444
    1SOL     OW 4913   0.248   3.614   2.244 -0.1406  0.4062 -0.2296
    1SOL    HW2 4914   0.307   3.549   2.282  0.6450  1.0984 -0.2768
    1SOL    HW3 4915   0.161   3.587   2.275  0.1442 -0.8319 -0.4765
    1SOL    MW4 4916   0.244   3.602   2.253  0.0006  0.3343 -0.2682
    1SOL     OW 4917   0.240   3.876   2.336  0.1082 -0.2901  0.6376
    1SOL    HW2 4918   0.158   3.913   2.304  0.8621  0.4074 -0.5301
    1SOL    HW3 4919   0.243   3.788   2.301  0.5874  0.2219 -0.6166
    1SOL    MW4 4920   0.230   3.870   2.327  0.2709 -0.1307  0.3183
    1SOL     OW 4921   0.008   3.992   2.242  0.4871 -0.0743  0.1940
    1SOL    HW2 4922   0.003   4.082   2.275 -1.9298  0.3514 -1.1689
    1SOL    HW3 4923   0.003   4.001   2.146 -2.4760 -1.7376  0.1209
    1SOL    MW4 4924   0.007   4.005   2.233 -0.2222 -0.2375  0.0045
    1SOL     OW 4925   4.461   4.252   2.341  0.0438  0.3751  0.0979
    1SOL    HW2 4926   4.480   4.250   2.435 -0.0154  1.0043  0.1243
    1SOL    HW3 4927   4.534   4.301   2.303  0.6632 -0.8659 -0.3306
    1SOL    MW4 4928   4.473   4.258   2.349  0.1183  0.2947  0.0451
    1SOL     OW 4929   0.174   4.405   2.267  0.0214 -0.3501 -0.1078
    1SOL    HW2 4930   0.252   4.360   2.299  0.5676  0.3143 -0.4955
    1SOL    HW3 4931   0.163   4.480   2.325  0.5105  0.3696 -0.9328
    1SOL    MW4 4932   0.183   4.409   2.279  0.1580 -0.1678 -0.2682
    1SOL     OW 4933   0.646   4.660   2.325  0.1057  0.0113 -0.1612
    1SOL    HW2 4934   0.640   4.673   2.420 -0.5216  0.8105 -0.3019
    1SOL    HW3 4935   0.738   4.676   2.305 -0.0308  1.2154  0.1231
    1SOL    MW4 4936   0.657   4.664   2.335  0.0049  0.2756 -0.1421
    1SOL     OW 4937   0.439   0.148   2.243 -0.2648 -0.7722  0.4064
    1SOL    HW2 4938   0.517   0.096   2.262  1.0254  0.7183 -0.6734
    1SOL    HW3 4939   0.437   0.155   2.148 -1.8628 -0.9963  0.4154
    1SOL    MW4 4940   0.449   0.142   2.233 -0.3054 -0.6051  0.2649
    1SOL     OW 4941   0.421   0.397   2.396  0.2487 -0.3693 -0.3190
    1SOL    HW2 4942   0.432   0.384   2.490  1.9060 -0.5329 -0.5158
    1SOL    HW3 4943   0.439   0.311   2.358 -0.8761 -0.4143 -0.7486
    1SOL    MW4 4944   0.425   0.384   2.404  0.3189 -0.3968 -0.4017
    1SOL     OW 4945   0.654   0.514   2.282 -0.1467 -0.0679  0.2235
    1SOL    HW2 4946   0.665   0.606   2.307 -2.3151  0.3479 -0.2147
    1SOL    HW3 4947   0.568   0.490   2.316  0.4071 -1.9527  0.3550
    1SOL    MW4 4948   0.644   0.523   2.289 -0.3597 -0.2618  0.1829
    1SOL     OW 4949   0.682   0.795   2.337 -0.3415 -0.2486  0.3480
    1SOL    HW2 4950   0.685   0.796   2.433  0.3528 -1.9907  0.3561
    1SOL    HW3 4951   0.595   0.829   2.316 -0.6332 -0.1693  1.6024
    1SOL    MW4 4952   0.671   0.800   2.347 -0.2884 -0.4680  0.5145
    1SOL     OW 4953   0.423   0.899   2.284  0.1099  0.4522 -0.2568
    1SOL    HW2 4954   0.345   0.852   2.312  0.8474 -0.7294 -0.1371
    1SOL    HW3 4955   0.418   0.899   2.188 -0.5744  1.3288 -0.2297
    1SOL    MW4 4956   0.412   0.893   2.275  0.1169  0.4120 -0.2377
    1SOL     OW 4957   0.429   1.203   2.324 -0.4553 -0.0239  0.2743
    1SOL    HW2 4958   0.426   1.107   2.327 -1.1140 -0.0087  0.0300
    1SOL    HW3 4959   0.344   1.229   2.289  0.1716  0.5924 -0.8301
    1SOL    MW4 4960   0.418   1.194   2.319 -0.4595  0.0595  0.0963
    1SOL     OW 4961   0.671   1.305   2.248  0.0982  0.1252 -0.4683
    1SOL    HW2 4962   0.669   1.393   2.285 -1.8078 -0.2800  0.4597
    1SOL    HW3 4963   0.591   1.263   2.281 -0.8674 -0.7710 -3.7205
    1SOL    MW4 4964   0.660   1.311   2.257 -0.2806 -0.0464 -0.7746
    1SOL     OW 4965   0.654   1.548   2.394  0.0533 -0.0412  0.1550
    1SOL    HW2 4966   0.674   1.531   2.486 -0.9146 -1.6640  0.0846
    1SOL    HW3 4967   0.734   1.588   2.359  0.7533 -0.2699  1.4734
    1SOL    MW4 4968   0.668   1.551   2.402  0.0179 -0.2855  0.3197
    1SOL     OW 4969   0.448   1.678   2.277  0.1428  0.3760  0.2793
    1SOL    HW2 4970   0.508   1.621   2.326 -1.1774 -1.3069  0.0225
    1SOL    HW3 4971   0.362   1.656   2.312 -0.5359  1.1623 -0.8823
    1SOL    MW4 4972   0.445   1.667   2.288 -0.1209  0.2577  0.0920
    1SOL     OW 4973   0.433   1.932   2.378 -0.2852 -0.0046  0.1484
    1SOL    HW2 4974   0.507   1.986   2.350 -1.3799  0.3098 -2.3100
    1SOL    HW3 4975   0.446   1.849   2.332 -1.9069  0.3675 -1.0299
    1SOL    MW4 4976   0.445   1.928   2.368 -0.6436  0.0861 -0.3316
    1SOL     OW 4977   0.655   2.055   2.254  0.0917  0.1883 -0.0413
    1SOL    HW2 4978   0.727   2.006   2.296  0.2864  0.8948  0.4670
    1SOL    HW3 4979   0.666   2.144   2.287 -0.9679  0.3162 -0.0361
    1SOL    MW4 4980   0.666   2.060   2.264 -0.0224  0.2985  0.0262
    1SOL     OW 4981   0.680   2.316   2.359 -0.0751 -0.4560  0.5725
    1SOL    HW2 4982   0.690   2.307   2.454  0.0121  0.5304  0.6624
    1SOL    HW3 4983   0.766   2.341   2.328 -0.6576  1.5671  0.5354
    1SOL    MW4 4984   0.693   2.318   2.367 -0.1404 -0.0591  0.5796
    1SOL     OW 4985   0.455   2.468   2.277 -0.0623 -0.1067  0.3544
    1SOL    HW2 4986   0.540   2.429   2.298  0.1638  0.6150  0.7827
    1SOL    HW3 4987   0.393   2.420   2.332  0.2680  0.3857  1.1783
    1SOL    MW4 4988   0.458   2.457   2.287  0.0111  0.0534  0.5195
    1SOL     OW 4989   0.475   2.733   2.334 -0.2611 -0.4466  0.2438
    1SOL    HW2 4990   0.463   2.742   2.428 -0.0843  0.1190  0.2145
    1SOL    HW3 4991   0.463   2.640   2.317  1.3593 -0.8104  1.0546
    1SOL    MW4 4992   0.472   2.722   2.344 -0.0239 -0.4199  0.3469
    1SOL     OW 4993   0.705   2.849   2.269  0.3086 -0.2313  0.2491
    1SOL    HW2 4994   0.771   2.783   2.288 -0.6076 -0.2847  3.5307
    1SOL    HW3 4995   0.621   2.804   2.281 -0.3413  0.4750 -1.4765
    1SOL    MW4 4996   0.703   2.834   2.273  0.1020 -0.1450  0.4544
    1SOL     OW 4997   0.716   3.114   2.369 -0.2740 -0.4005  0.2356
    1SOL    HW2 4998   0.645   3.160   2.324  0.4760  0.1123 -0.4439
    1SOL    HW3 4999   0.711   3.024   2.336 -0.2948 -0.2403 -0.1984
    1SOL    MW4 5000   0.706   3.108   2.358 -0.1778 -0.3116  0.0887
    1SOL     OW 5001   0.493   3.206   2.251 -0.2191  0.0929  0.6635
    1SOL    HW2 5002   0.414   3.172   2.291 -0.3872 -0.9959 -0.5670
    1SOL    HW3 5003   0.471   3.218   2.159  1.1178 -0.4550  0.2514
    1SOL    MW4 5004   0.480   3.203   2.244 -0.0649 -0.1230  0.4470
    1SOL     OW 5005   0.455   3.463   2.340  0.9663 -0.1045 -0.0439
    1SOL    HW2 5006   0.528   3.505   2.295  1.2797 -1.0859 -0.4620
    1SOL    HW3 5007   0.460   3.371   2.315  0.3861 -0.4363  0.9929
    1SOL    MW4 5008   0.465   3.457   2.331  0.9311 -0.2778  0.0379
    1SOL     OW 5009   0.672   3.604   2.238 -0.2534 -0.2056  0.0852
    1SOL    HW2 5010   0.666   3.688   2.285 -0.8680  0.2105 -0.7238
    1SOL    HW3 5011   0.668   3.628   2.146  1.4291 -0.9976 -0.1977
    1SOL    MW4 5012   0.670   3.618   2.232 -0.1124 -0.2556 -0.0587
    1SOL     OW 5013   0.631   3.848   2.375 -0.0089  0.2475  0.1332
    1SOL    HW2 5014   0.631   3.878   2.465 -2.2952  0.7738 -0.0186
    1SOL    HW3 5015   0.566   3.903   2.331  1.2824  0.2079 -1.9096
    1SOL    MW4 5016   0.622   3.859   2.381 -0.1402  0.3119 -0.1564
    1SOL     OW 5017   0.455   4.009   2.246  0.3978 -0.1139  0.0470
    1SOL    HW2 5018   0.378   3.956   2.268  0.3818 -0.3576 -0.5786
    1SOL    HW3 5019   0.459   4.006   2.150 -0.3420  2.0450 -0.0867
    1SOL    MW4 5020   0.445   4.002   2.236  0.2981  0.1388 -0.0536
    1SOL     OW 5021   0.385   4.261   2.352  0.6024 -0.2716  0.2762
    1SOL    HW2 5022   0.467   4.305   2.330 -0.4805  0.9377 -1.3459
    1SOL    HW3 5023   0.394   4.173   2.314  0.5316  0.3565 -1.1951
    1SOL    MW4 5024   0.397   4.255   2.344  0.4502 -0.0291 -0.1321
    1SOL     OW 5025   0.620   4.389   2.311  0.2440  0.0462 -0.2123
    1SOL    HW2 5026   0.620   4.482   2.336 -1.1979  0.3344 -1.1853
    1SOL    HW3 5027   0.625   4.390   2.216 -3.5338 -0.7199 -0.5046
    1SOL    MW4 5028   0.621   4.402   2.302 -0.4446 -0.0172 -0.3793
    1SOL     OW 5029   1.138   4.641   2.369  0.1522  0.0506 -0.0396
    1SOL    HW2 5030   1.118   4.630   2.462  0.6909  0.9653  0.1918
    1SOL    HW3 5031   1.060   4.684   2.333  0.7448  1.5244  0.4008
    1SOL    MW4 5032   1.125   4.645   2.376  0.3016  0.3657  0.0489
    1SOL     OW 5033   0.910   0.091   2.251 -0.0805 -0.1298  0.1727
    1SOL    HW2 5034   0.884   0.173   2.292 -1.4518 -0.3586 -0.2146
    1SOL    HW3 5035   0.915   0.110   2.158  1.7331  0.0568  0.3056
    1SOL    MW4 5036   0.907   0.104   2.244 -0.0221 -0.1354  0.1390
    1SOL     OW 5037   0.849   0.354   2.340 -0.5043 -0.4787  0.1733
    1SOL    HW2 5038   0.926   0.405   2.315  0.1281 -1.9111 -0.8260
    1SOL    HW3 5039   0.778   0.418   2.341  0.2225  0.3771 -1.3704
    1SOL    MW4 5040   0.850   0.369   2.337 -0.3250 -0.5548 -0.1624
    1SOL     OW 5041   1.082   0.510   2.277 -0.2720 -0.2033  0.0193
    1SOL    HW2 5042   1.147   0.451   2.315 -0.3507 -1.4715 -1.7658
    1SOL    HW3 5043   1.098   0.506   2.183 -2.2844  0.2650 -0.3550
    1SOL    MW4 5044   1.093   0.502   2.270 -0.5479 -0.3088 -0.2658
    1SOL     OW 5045   1.139   0.772   2.354  0.2951  0.1730  0.3303
    1SOL    HW2 5046   1.061   0.821   2.327 -1.3224 -1.6258  1.6268
    1SOL    HW3 5047   1.123   0.682   2.323  1.9704 -0.1728  0.4114
    1SOL    MW4 5048   1.126   0.767   2.346  0.3028 -0.1100  0.5121
    1SOL     OW 5049   0.913   0.915   2.267 -0.2829  0.1645  0.5301
    1SOL    HW2 5050   0.900   1.006   2.292  0.1826  0.5285 -0.4939
    1SOL    HW3 5051   0.831   0.871   2.290 -0.4195  0.7960  1.2392
    1SOL    MW4 5052   0.901   0.921   2.273 -0.2395  0.2959  0.4890
    1SOL     OW 5053   0.885   1.169   2.360  0.4120 -0.6500 -0.3547
    1SOL    HW2 5054   0.958   1.206   2.310 -0.4751  0.4199 -0.8832
    1SOL    HW3 5055   0.809   1.221   2.332 -0.2843 -0.7774  1.2863
    1SOL    MW4 5056   0.885   1.181   2.350  0.2031 -0.5256 -0.2081
    1SOL     OW 5057   1.125   1.255   2.230  0.4832 -0.1860 -0.1584
    1SOL    HW2 5058   1.193   1.195   2.260  1.1950  0.6635 -0.0602
    1SOL    HW3 5059   1.147   1.272   2.138  0.4172  0.1039 -0.1213
    1SOL    MW4 5060   1.137   1.249   2.222  0.5684 -0.0355 -0.1404
    1SOL     OW 5061   1.157   1.515   2.319  0.3792  0.1037  0.1440
    1SOL    HW2 5062   1.074   1.552   2.289  0.5011  1.0942  0.9869
    1SOL    HW3 5063   1.158   1.426   2.284 -1.2482 -0.0767  0.5112
    1SOL    MW4 5064   1.146   1.508   2.310  0.1805  0.2105  0.3035
    1SOL     OW 5065   0.898   1.647   2.267 -0.5546  0.0300  0.1546
    1SOL    HW2 5066   0.891   1.735   2.304  1.4624  0.4982 -0.5188
    1SOL    HW3 5067   0.892   1.660   2.173  0.7971 -0.4193 -0.0026
    1SOL    MW4 5068   0.897   1.660   2.260 -0.1101  0.0324  0.0451
    1SOL     OW 5069   0.868   1.900   2.388 -0.3864  0.3160 -0.1860
    1SOL    HW2 5070   0.885   1.914   2.481 -2.3441  0.0571  0.2241
    1SOL    HW3 5071   0.941   1.944   2.343  0.3667  0.7546  1.4373
    1SOL    MW4 5072   0.880   1.908   2.394 -0.5453  0.3396  0.0823
    1SOL     OW 5073   1.135   1.996   2.260  0.1132  0.3743 -0.1340
    1SOL    HW2 5074   1.222   1.963   2.284 -0.1232 -0.3839 -0.2886
    1SOL    HW3 5075   1.142   2.016   2.167  0.1920  0.5490 -0.0907
    1SOL    MW4 5076   1.147   1.994   2.251  0.0923  0.2974 -0.1488
    1SOL     OW 5077   1.144   2.258   2.342  0.6305 -0.3216 -0.0551
    1SOL    HW2 5078   1.221   2.300   2.302  0.9719  1.1279  2.0541
    1SOL    HW3 5079   1.152   2.166   2.318  1.6346  0.2465 -2.0191
    1SOL    MW4 5080   1.155   2.251   2.333  0.8081 -0.0556 -0.0360
    1SOL     OW 5081   0.917   2.385   2.241 -0.3201 -0.2620  0.3282
    1SOL    HW2 5082   0.995   2.335   2.264 -0.6450 -0.2678  1.4672
    1SOL    HW3 5083   0.925   2.400   2.147  0.3965 -1.3811  0.2004
    1SOL    MW4 5084   0.929   2.380   2.232 -0.2684 -0.4106  0.4616
    1SOL     OW 5085   0.910   2.679   2.335  0.1804  0.4238  0.0995
    1SOL    HW2 5086   0.912   2.684   2.430 -0.6855  1.1078  0.0928
    1SOL    HW3 5087   0.891   2.587   2.315  2.3696 -0.1341  0.5444
    1SOL    MW4 5088   0.908   2.668   2.345  0.3550  0.4401  0.1576
    1SOL     OW 5089   1.104   2.843   2.203  0.0007 -0.5215 -0.0320
    1SOL    HW2 5090   1.184   2.810   2.245  0.3268 -0.0706 -0.3043
    1SOL    HW3 5091   1.034   2.793   2.245  0.4389 -1.0673  0.0628
    1SOL    MW4 5092   1.106   2.832   2.214  0.1016 -0.5341 -0.0553
    1SOL     OW 5093   1.121   3.056   2.371  0.0348  0.0894 -0.4362
    1SOL    HW2 5094   1.068   3.120   2.322  1.6771  0.6191 -1.5769
    1SOL    HW3 5095   1.115   2.976   2.319  1.2447  0.4693 -1.1954
    1SOL    MW4 5096   1.113   3.054   2.358  0.4110  0.2096 -0.6869
    1SOL     OW 5097   0.951   3.223   2.237 -0.6342 -0.3119 -0.2418
    1SOL    HW2 5098   0.941   3.312   2.273  1.3218 -0.4443  0.7057
    1SOL    HW3 5099   0.879   3.174   2.276 -2.8550  1.2763 -2.2347
    1SOL    MW4 5100   0.940   3.228   2.247 -0.6691 -0.1197 -0.3796
    1SOL     OW 5101   0.889   3.475   2.347  0.3839 -0.0044  0.0949
    1SOL    HW2 5102   0.880   3.482   2.442  0.9334 -0.7346  0.1984
    1SOL    HW3 5103   0.809   3.515   2.313  1.0545  1.9844  0.8100
    1SOL    MW4 5104   0.877   3.481   2.355  0.5448  0.1616  0.2027
    1SOL     OW 5105   1.111   3.608   2.257  0.2557 -0.2639 -0.2602
    1SOL    HW2 5106   1.194   3.565   2.279 -0.2769 -0.4434  1.4505
    1SOL    HW3 5107   1.044   3.547   2.288 -0.5277 -0.0699 -1.5366
    1SOL    MW4 5108   1.113   3.594   2.264  0.0823 -0.2618 -0.2029
    1SOL     OW 5109   1.112   3.878   2.353 -0.1840 -0.3425 -0.2591
    1SOL    HW2 5110   1.198   3.916   2.335 -0.5525  0.1612 -0.9733
    1SOL    HW3 5111   1.116   3.791   2.313  0.0644 -0.4058 -0.1022
    1SOL    MW4 5112   1.124   3.871   2.345 -0.1999 -0.2842 -0.3326
    1SOL     OW 5113   0.858   3.989   2.300  0.1656  0.1718 -0.0427
    1SOL    HW2 5114   0.940   3.939   2.302 -0.7892 -1.6604 -2.7200
    1SOL    HW3 5115   0.791   3.926   2.328 -0.5392  1.1995  0.6243
    1SOL    MW4 5116   0.860   3.974   2.304 -0.0534  0.0658 -0.3080
    1SOL     OW 5117   0.875   4.273   2.387 -0.5320  0.4605  0.8846
    1SOL    HW2 5118   0.862   4.182   2.360 -0.6279  1.0236 -1.0829
    1SOL    HW3 5119   0.792   4.316   2.365  0.0206  1.3223  0.4710
    1SOL    MW4 5120   0.862   4.267   2.381 -0.4717  0.6485  0.5705
    1SOL     OW 5121   1.100   4.378   2.256 -0.3048 -0.4740  0.0033
    1SOL    HW2 5122   1.031   4.328   2.299  0.0540 -0.1444  0.9638
    1SOL    HW3 5123   1.093   4.466   2.293  0.6252 -0.4361  0.0946
    1SOL    MW4 5124   1.090   4.383   2.267 -0.1347 -0.4249  0.1421
    1SOL     OW 5125   1.561   4.621   2.331 -0.0744  0.0719  0.0517
    1SOL    HW2 5126   1.632   4.676   2.300  0.6672 -1.4819 -1.0815
    1SOL    HW3 5127   1.481   4.666   2.303  0.5344  0.2856 -1.3722
    1SOL    MW4 5128   1.560   4.634   2.323  0.1037 -0.1049 -0.2859
    1SOL     OW 5129   1.335   0.092   2.236  0.0963 -0.3962 -0.1628
    1SOL    HW2 5130   1.336   0.186   2.254  0.6565  0.0940 -2.5792
    1SOL    HW3 5131   1.265   0.058   2.291 -1.3014  1.7382 -0.5464
    1SOL    MW4 5132   1.326   0.100   2.245 -0.0142 -0.0499 -0.5324
    1SOL     OW 5133   1.309   0.352   2.347  0.6810 -0.4011 -0.2113
    1SOL    HW2 5134   1.297   0.325   2.438  0.9299 -1.0943 -0.3839
    1SOL    HW3 5135   1.398   0.387   2.343  0.8214 -0.7734 -0.2918
    1SOL    MW4 5136   1.319   0.353   2.358  0.7323 -0.5417 -0.2449
    1SOL     OW 5137   1.556   0.464   2.300  0.1307 -0.1818  0.0794
    1SOL    HW2 5138   1.642   0.429   2.322  0.8912  1.3089 -0.4908
    1SOL    HW3 5139   1.557   0.470   2.204  0.2374  1.9595  0.2053
    1SOL    MW4 5140   1.567   0.460   2.290  0.2451  0.2974  0.0210
    1SOL     OW 5141   1.580   0.755   2.377  0.0546  0.3246  0.3126
    1SOL    HW2 5142   1.659   0.787   2.335  0.1871  1.2055  1.2166
    1SOL    HW3 5143   1.574   0.663   2.350  0.7909  0.5490 -0.6299
    1SOL    MW4 5144   1.590   0.747   2.368  0.1693  0.4704  0.3076
    1SOL     OW 5145   1.375   0.878   2.236 -0.5803  0.4333  0.0546
    1SOL    HW2 5146   1.447   0.836   2.282 -0.8226  1.5466  1.4691
    1SOL    HW3 5147   1.296   0.852   2.284 -1.1875 -1.1084 -1.7153
    1SOL    MW4 5148   1.374   0.869   2.248 -0.6922  0.3768  0.0076
    1SOL     OW 5149   1.344   1.133   2.338 -0.1279 -0.3604 -0.0432
    1SOL    HW2 5150   1.335   1.134   2.433  0.1791  1.1456 -0.0207
    1SOL    HW3 5151   1.347   1.040   2.315 -0.7836 -0.7370  1.3575
    1SOL    MW4 5152   1.343   1.121   2.347 -0.1738 -0.2114  0.1450
    1SOL     OW 5153   1.593   1.235   2.263 -0.2497  0.0950 -0.1606
    1SOL    HW2 5154   1.508   1.201   2.291  0.0091  0.1203  0.6732
    1SOL    HW3 5155   1.581   1.255   2.170 -1.2675  0.4680  0.0408
    1SOL    MW4 5156   1.580   1.233   2.254 -0.3496  0.1476 -0.0241
    1SOL     OW 5157   1.566   1.500   2.348 -0.0303 -0.3524 -0.0779
    1SOL    HW2 5158   1.649   1.546   2.335  0.8354 -1.7211  0.5253
    1SOL    HW3 5159   1.584   1.410   2.321 -1.3013 -0.6816  0.1515
    1SOL    MW4 5160   1.579   1.494   2.342 -0.0839 -0.5765  0.0319
    1SOL     OW 5161   1.369   1.639   2.196  0.0939  0.2020 -0.1406
    1SOL    HW2 5162   1.442   1.586   2.228  0.6553  1.0406 -0.0131
    1SOL    HW3 5163   1.292   1.602   2.239  0.5737 -0.0696  0.4937
    1SOL    MW4 5164   1.368   1.627   2.206  0.2313  0.2769 -0.0403
    1SOL     OW 5165   1.373   1.881   2.325 -0.0354 -0.1533 -0.1992
    1SOL    HW2 5166   1.461   1.915   2.312  0.3823 -1.0825  0.1137
    1SOL    HW3 5167   1.376   1.793   2.288 -0.2105 -0.9925  1.7268
    1SOL    MW4 5168   1.385   1.874   2.318 -0.0035 -0.3865  0.0961
    1SOL     OW 5169   1.587   2.035   2.248  0.1478 -0.4108 -0.0756
    1SOL    HW2 5170   1.674   2.007   2.277 -0.6540 -1.9704  0.8760
    1SOL    HW3 5171   1.592   2.032   2.153  1.4064  0.3364 -0.0415
    1SOL    MW4 5172   1.600   2.031   2.239  0.2081 -0.5181  0.0544
    1SOL     OW 5173   1.579   2.307   2.317  0.7142 -0.0839  0.0052
    1SOL    HW2 5174   1.566   2.302   2.411 -0.3566 -0.1369 -0.1453
    1SOL    HW3 5175   1.563   2.219   2.285 -1.1191  0.4024 -0.4905
    1SOL    MW4 5176   1.575   2.295   2.325  0.3309 -0.0269 -0.0801
    1SOL     OW 5177   1.349   2.444   2.237  0.0917 -0.1941 -0.2022
    1SOL    HW2 5178   1.430   2.397   2.258 -0.9356 -1.4515  1.0656
    1SOL    HW3 5179   1.347   2.448   2.142  0.2742 -2.6322 -0.3368
    1SOL    MW4 5180   1.359   2.439   2.227 -0.0199 -0.6816 -0.0529
    1SOL     OW 5181   1.304   2.704   2.327  0.0676  0.0418 -0.1550
    1SOL    HW2 5182   1.382   2.750   2.297 -0.8244  0.4959 -1.8111
    1SOL    HW3 5183   1.318   2.613   2.299 -0.7237  0.4466 -1.9183
    1SOL    MW4 5184   1.316   2.698   2.319 -0.1544  0.1552 -0.6063
    1SOL     OW 5185   1.533   2.821   2.251 -0.3492  0.7426 -0.2173
    1SOL    HW2 5186   1.533   2.905   2.298 -0.8298  1.0248 -0.7204
    1SOL    HW3 5187   1.537   2.845   2.159 -1.2534  0.2319 -0.3951
    1SOL    MW4 5188   1.533   2.836   2.245 -0.5320  0.7124 -0.3071
    1SOL     OW 5189   1.597   3.102   2.340  0.2684 -0.2107  0.1938
    1SOL    HW2 5190   1.599   3.083   2.434  0.2882  0.3913  0.3141
    1SOL    HW3 5191   1.512   3.143   2.325  0.1871 -0.4811 -0.0832
    1SOL    MW4 5192   1.586   3.105   2.351  0.2604 -0.1671  0.1731
    1SOL     OW 5193   1.352   3.183   2.277 -0.6651  0.1067 -0.0356
    1SOL    HW2 5194   1.279   3.134   2.315  1.0624 -2.0594  0.5689
    1SOL    HW3 5195   1.324   3.203   2.188 -2.6187  0.6711  0.6766
    1SOL    MW4 5196   1.339   3.179   2.271 -0.6949 -0.1051  0.1380
    1SOL     OW 5197   1.348   3.461   2.324  0.2259  0.0137 -0.5134
    1SOL    HW2 5198   1.339   3.465   2.419 -0.4491  1.8513 -0.6416
    1SOL    HW3 5199   1.329   3.370   2.302  0.2081 -0.3786  1.0812
    1SOL    MW4 5200   1.345   3.449   2.334  0.1346  0.2046 -0.3197
    1SOL     OW 5201   1.557   3.606   2.202  0.7228 -0.2663  0.0992
    1SOL    HW2 5202   1.551   3.691   2.246 -0.5442 -1.2457  1.8926
    1SOL    HW3 5203   1.493   3.552   2.247  1.3275 -2.1072 -1.2126
    1SOL    MW4 5204   1.548   3.610   2.214  0.6354 -0.6382  0.1626
    1SOL     OW 5205   1.539   3.866   2.346  0.1611  0.1375  0.0223
    1SOL    HW2 5206   1.540   3.869   2.442  0.9284 -1.0443  0.0573
    1SOL    HW3 5207   1.623   3.904   2.320  0.2858 -0.2578 -0.1559
    1SOL    MW4 5208   1.550   3.872   2.355  0.2787 -0.0706  0.0036
    1SOL     OW 5209   1.333   4.018   2.244 -0.0583  0.0962 -0.4471
    1SOL    HW2 5210   1.418   3.977   2.260  1.0612  1.5968 -2.3157
    1SOL    HW3 5211   1.318   4.005   2.150 -1.2437  1.0199 -0.3952
    1SOL    MW4 5212   1.343   4.011   2.233 -0.0670  0.4158 -0.6869
    1SOL     OW 5213   1.339   4.262   2.348  0.5906 -0.3695 -0.1285
    1SOL    HW2 5214   1.329   4.175   2.311 -0.2491 -0.3169 -0.0353
    1SOL    HW3 5215   1.267   4.313   2.310  0.5514  0.0487  0.4983
    1SOL    MW4 5216   1.328   4.258   2.338  0.4746 -0.3071 -0.0336
    1SOL     OW 5217   1.568   4.364   2.237 -0.4341 -0.1787  0.1325
    1SOL    HW2 5218   1.488   4.329   2.276 -0.3639 -0.1374  0.3134
    1SOL    HW3 5219   1.568   4.457   2.261  1.0331 -0.7345  2.4134
    1SOL    MW4 5220   1.557   4.372   2.245 -0.2313 -0.2465  0.4573
    1SOL     OW 5221   2.045   4.641   2.327 -0.6058 -0.0526  0.1015
    1SOL    HW2 5222   2.114   4.689   2.282  0.7260  0.2068  2.3441
    1SOL    HW3 5223   2.060   4.549   2.305  0.8860 -0.0673  1.0750
    1SOL    MW4 5224   2.056   4.635   2.318 -0.2334 -0.0200  0.5260
    1SOL     OW 5225   1.792   0.083   2.254  0.2028 -0.2776 -0.2658
    1SOL    HW2 5226   1.794   0.175   2.282 -0.1214  0.1043 -1.4609
    1SOL    HW3 5227   1.873   0.046   2.287  0.0768  0.3011  0.6982
    1SOL    MW4 5228   1.803   0.090   2.262  0.1434 -0.1509 -0.2961
    1SOL     OW 5229   1.798   0.340   2.393 -0.3837  0.0954 -0.1327
    1SOL    HW2 5230   1.808   0.334   2.488 -0.3426 -0.4792 -0.1725
    1SOL    HW3 5231   1.871   0.394   2.364 -0.9379  1.0698  0.2690
    1SOL    MW4 5232   1.809   0.346   2.401 -0.4513  0.1481 -0.0849
    1SOL     OW 5233   2.002   0.489   2.276 -0.1910  0.1763  0.0793
    1SOL    HW2 5234   1.981   0.575   2.312  1.0075  0.6568 -0.3700
    1SOL    HW3 5235   2.003   0.501   2.181  0.6874 -0.1700  0.0409
    1SOL    MW4 5236   1.999   0.502   2.268  0.0830  0.1940  0.0148
    1SOL     OW 5237   2.005   0.741   2.379  0.0274  0.3453  0.2376
    1SOL    HW2 5238   2.088   0.762   2.336  0.4230  0.4819  1.0625
    1SOL    HW3 5239   1.942   0.802   2.340  0.7173  1.5924  1.0232
    1SOL    MW4 5240   2.007   0.752   2.368  0.1705  0.5279  0.4501
    1SOL     OW 5241   1.804   0.896   2.286  0.6964  0.2221  0.6826
    1SOL    HW2 5242   1.815   0.988   2.309 -2.0622  0.4183  1.3925
    1SOL    HW3 5243   1.781   0.896   2.193  3.6478 -0.0026 -0.0993
    1SOL    MW4 5244   1.803   0.908   2.277  0.7218  0.2184  0.6731
    1SOL     OW 5245   1.824   1.151   2.376 -0.4188 -0.8151  0.1166
    1SOL    HW2 5246   1.897   1.208   2.351 -0.5945  0.2324  1.8526
    1SOL    HW3 5247   1.747   1.192   2.336 -0.6414  0.6200  1.9020
    1SOL    MW4 5248   1.824   1.164   2.368 -0.4712 -0.4876  0.5813
    1SOL     OW 5249   2.051   1.285   2.266 -0.0097  0.1002  0.4599
    1SOL    HW2 5250   2.076   1.372   2.297  0.8908  0.3325 -0.8779
    1SOL    HW3 5251   2.055   1.291   2.171  0.2123 -1.4407  0.3559
    1SOL    MW4 5252   2.055   1.297   2.257  0.1385 -0.0725  0.2697
    1SOL     OW 5253   2.072   1.545   2.360 -0.0024  0.2530 -0.0613
    1SOL    HW2 5254   2.072   1.532   2.454 -0.5295  2.7394  0.3295
    1SOL    HW3 5255   1.983   1.574   2.339  0.1473 -0.1235 -1.2888
    1SOL    MW4 5256   2.060   1.547   2.369 -0.0522  0.5313 -0.1717
    1SOL     OW 5257   1.822   1.647   2.284  0.3024  0.7673 -0.3092
    1SOL    HW2 5258   1.803   1.738   2.303 -0.2786  0.6781 -0.4489
    1SOL    HW3 5259   1.818   1.641   2.188 -0.0610  0.5117 -0.2798
    1SOL    MW4 5260   1.819   1.658   2.274  0.1777  0.7218 -0.3240
    1SOL     OW 5261   1.809   1.909   2.354  0.1172  0.0060  0.1800
    1SOL    HW2 5262   1.802   1.930   2.447  0.9571  1.0995  0.0027
    1SOL    HW3 5263   1.874   1.970   2.320 -0.7236  0.1191 -1.2783
    1SOL    MW4 5264   1.816   1.920   2.361  0.1171  0.1652 -0.0358
    1SOL     OW 5265   1.994   2.062   2.225 -0.1237  0.5897 -0.1101
    1SOL    HW2 5266   2.072   2.020   2.262  0.1196  0.4537 -0.7768
    1SOL    HW3 5267   1.991   2.031   2.135 -1.3309  0.0565  0.1114
    1SOL    MW4 5268   2.004   2.052   2.218 -0.2508  0.5014 -0.1688
    1SOL     OW 5269   1.982   2.324   2.321 -0.3568 -0.4474  0.1112
    1SOL    HW2 5270   2.052   2.375   2.279 -0.4795  0.7557  1.3603
    1SOL    HW3 5271   1.995   2.235   2.287  0.2099  0.2694 -1.6449
    1SOL    MW4 5272   1.993   2.319   2.311 -0.2981 -0.1941  0.0443
    1SOL     OW 5273   1.786   2.465   2.204  0.0130 -0.1907 -0.2563
    1SOL    HW2 5274   1.848   2.408   2.248  0.2790 -0.3516 -0.8261
    1SOL    HW3 5275   1.700   2.434   2.232  0.1916  0.1563  0.6862
    1SOL    MW4 5276   1.783   2.454   2.213  0.0716 -0.1659 -0.2072
    1SOL     OW 5277   1.799   2.716   2.330 -0.1969  0.3979  0.0259
    1SOL    HW2 5278   1.797   2.630   2.290 -0.3896  0.0793  0.7209
    1SOL    HW3 5279   1.718   2.758   2.302  0.1860  0.5922 -0.8205
    1SOL    MW4 5280   1.788   2.710   2.321 -0.1718  0.3815  0.0057
    1SOL     OW 5281   2.013   2.854   2.222 -0.3141 -0.8504 -0.5822
    1SOL    HW2 5282   2.088   2.799   2.247 -0.4994 -1.3839 -1.1732
    1SOL    HW3 5283   1.940   2.817   2.271 -0.0230  0.2130  0.6545
    1SOL    MW4 5284   2.014   2.842   2.232 -0.3004 -0.7803 -0.4971
    1SOL     OW 5285   2.050   3.101   2.330  0.1255  0.1466  0.2561
    1SOL    HW2 5286   2.126   3.142   2.288 -0.4622 -0.9322 -1.9042
    1SOL    HW3 5287   2.041   3.017   2.286 -2.0808  0.0987  0.7620
    1SOL    MW4 5288   2.059   3.096   2.318 -0.2429 -0.0024  0.0379
    1SOL     OW 5289   1.828   3.250   2.244  0.4254 -0.0218 -0.2111
    1SOL    HW2 5290   1.898   3.202   2.287  0.8623 -0.6897 -1.6331
    1SOL    HW3 5291   1.748   3.203   2.268  0.8019 -1.1996 -1.2066
    1SOL    MW4 5292   1.827   3.237   2.253  0.5327 -0.2654 -0.5300
    1SOL     OW 5293   1.790   3.506   2.326 -0.2608 -0.0996 -0.4108
    1SOL    HW2 5294   1.813   3.417   2.298  0.3842 -0.5793  1.5531
    1SOL    HW3 5295   1.708   3.525   2.282 -0.0590 -1.4111 -1.3858
    1SOL    MW4 5296   1.782   3.497   2.317 -0.1491 -0.3359 -0.2801
    1SOL     OW 5297   2.035   3.634   2.232  0.2506 -0.0286  0.0840
    1SOL    HW2 5298   1.950   3.605   2.267  0.0818  0.2112 -0.1251
    1SOL    HW3 5299   2.022   3.635   2.137  0.6521 -0.4988  0.0213
    1SOL    MW4 5300   2.022   3.630   2.224  0.2813 -0.0591  0.0484
    1SOL     OW 5301   2.039   3.912   2.311  0.0728 -0.0857  0.2378
    1SOL    HW2 5302   2.026   3.898   2.405  1.2515  0.4592  0.5033
    1SOL    HW3 5303   2.052   3.825   2.275 -1.1487 -0.3605  0.4593
    1SOL    MW4 5304   2.039   3.899   2.319  0.0672 -0.0501  0.3021
    1SOL     OW 5305   1.768   3.970   2.234  0.2887  0.0090 -0.3194
    1SOL    HW2 5306   1.858   3.950   2.260  0.3113 -1.8855 -1.7777
    1SOL    HW3 5307   1.772   3.981   2.139 -0.8946  0.6622 -0.3056
    1SOL    MW4 5308   1.780   3.969   2.225  0.1354 -0.1550 -0.5100
    1SOL     OW 5309   1.789   4.226   2.338 -0.0999  0.1457 -0.6793
    1SOL    HW2 5310   1.784   4.142   2.293  0.8994  1.1233 -2.7087
    1SOL    HW3 5311   1.712   4.274   2.308 -0.7023 -0.0532  0.5230
    1SOL    MW4 5312   1.778   4.221   2.328 -0.0476  0.2484 -0.7887
    1SOL     OW 5313   1.998   4.384   2.254 -0.2417  0.6968 -0.2493
    1SOL    HW2 5314   1.929   4.324   2.281  0.6914 -0.6493 -0.8175
    1SOL    HW3 5315   2.001   4.377   2.158  0.1183  1.3798 -0.2962
    1SOL    MW4 5316   1.990   4.375   2.245 -0.0712  0.6094 -0.3307
    1SOL     OW 5317   2.497   4.663   2.332 -0.2467  0.1245 -0.5716
    1SOL    HW2 5318   2.575   4.699   2.289  0.9541 -1.4378  0.2417
    1SOL    HW3 5319   2.480   4.581   2.285 -0.2072 -0.5190  0.5240
    1SOL    MW4 5320   2.505   4.657   2.320 -0.0832 -0.1664 -0.3197
    1SOL     OW 5321   2.275   0.119   2.235 -0.6843 -0.4290  0.3403
    1SOL    HW2 5322   2.262   0.208   2.267 -0.6590  0.0249 -0.9145
    1SOL    HW3 5323   2.347   0.085   2.289  0.2574  0.7894 -0.1186
    1SOL    MW4 5324   2.283   0.126   2.246 -0.5567 -0.2083  0.1144
    1SOL     OW 5325   2.236   0.364   2.370 -0.3145 -0.3515 -0.4233
    1SOL    HW2 5326   2.312   0.404   2.326  0.3827 -0.3812  0.7331
    1SOL    HW3 5327   2.162   0.419   2.344  0.3387  0.5572 -0.3790
    1SOL    MW4 5328   2.237   0.377   2.361 -0.1366 -0.2355 -0.2651
    1SOL     OW 5329   2.461   0.464   2.228  0.1665  0.5075  0.3233
    1SOL    HW2 5330   2.547   0.440   2.264 -0.7190 -1.5122  1.2108
    1SOL    HW3 5331   2.474   0.468   2.134  1.0010 -0.9607  0.3601
    1SOL    MW4 5332   2.474   0.461   2.220  0.1597  0.0473  0.4451
    1SOL     OW 5333   2.420   0.699   2.358 -0.1848  0.1501  0.2956
    1SOL    HW2 5334   2.499   0.748   2.336 -0.0473 -0.0918  0.2437
    1SOL    HW3 5335   2.432   0.614   2.316 -0.7486  0.3222 -0.2181
    1SOL    MW4 5336   2.432   0.694   2.350 -0.2410  0.1408  0.2210
    1SOL     OW 5337   2.231   0.863   2.230 -0.0616  0.1247 -0.0236
    1SOL    HW2 5338   2.238   0.956   2.253 -1.4180  0.1624  0.2327
    1SOL    HW3 5339   2.302   0.821   2.279  2.0893  1.3489 -1.9522
    1SOL    MW4 5340   2.241   0.870   2.239  0.0434  0.2912 -0.2444
    1SOL     OW 5341   2.255   1.119   2.316  0.2758 -0.1104 -0.2972
    1SOL    HW2 5342   2.325   1.180   2.294 -0.1499  0.7657  0.7134
    1SOL    HW3 5343   2.174   1.167   2.295 -0.0513 -0.4986  0.0658
    1SOL    MW4 5344   2.253   1.134   2.311  0.1767 -0.0459 -0.1156
    1SOL     OW 5345   2.474   1.295   2.219 -0.4032  0.0802 -0.2651
    1SOL    HW2 5346   2.549   1.250   2.257  0.0352  1.2512  0.2657
    1SOL    HW3 5347   2.474   1.381   2.260 -1.0647  0.6783 -1.5000
    1SOL    MW4 5348   2.484   1.300   2.230 -0.4327  0.3136 -0.3581
    1SOL     OW 5349   2.492   1.547   2.330  0.2503  0.2044  0.2404
    1SOL    HW2 5350   2.495   1.560   2.425 -0.1301  0.0071  0.2793
    1SOL    HW3 5351   2.568   1.595   2.297  0.4289  0.2055  0.6526
    1SOL    MW4 5352   2.502   1.555   2.338  0.2234  0.1785  0.2999
    1SOL     OW 5353   2.270   1.698   2.258  0.0250 -0.0253 -0.3064
    1SOL    HW2 5354   2.350   1.672   2.304  0.0528 -2.3713 -1.5991
    1SOL    HW3 5355   2.199   1.659   2.309 -0.1644  0.1516 -0.4332
    1SOL    MW4 5356   2.271   1.689   2.271  0.0038 -0.3115 -0.4940
    1SOL     OW 5357   2.232   1.957   2.324  0.2738  0.3001  0.0543
    1SOL    HW2 5358   2.321   1.992   2.315 -0.2722  1.4626 -0.9021
    1SOL    HW3 5359   2.239   1.866   2.296  1.4404 -0.0280  1.3219
    1SOL    MW4 5360   2.245   1.950   2.319  0.3557  0.4102  0.0951
    1SOL     OW 5361   2.462   2.072   2.269 -0.5942 -0.1650  0.6844
    1SOL    HW2 5362   2.551   2.040   2.281 -0.7615 -0.5295  0.9337
    1SOL    HW3 5363   2.451   2.075   2.174 -0.8079 -1.4906  0.6558
    1SOL    MW4 5364   2.472   2.068   2.258 -0.6444 -0.3879  0.7133
    1SOL     OW 5365   2.442   2.334   2.351  0.0060  0.2414  0.1001
    1SOL    HW2 5366   2.511   2.385   2.309  0.0694 -0.8614 -1.1633
    1SOL    HW3 5367   2.464   2.243   2.332 -0.2303 -0.2783  2.1347
    1SOL    MW4 5368   2.454   2.328   2.343 -0.0169  0.0269  0.2019
    1SOL     OW 5369   2.205   2.444   2.231  0.7061  0.2729 -0.0987
    1SOL    HW2 5370   2.198   2.527   2.279 -0.0399  0.2642 -0.1878
    1SOL    HW3 5371   2.273   2.395   2.278  0.2260  0.4014  0.7482
    1SOL    MW4 5372   2.213   2.449   2.244  0.5443  0.2887  0.0014
    1SOL     OW 5373   2.249   2.711   2.340  0.2640 -0.1935  0.0822
    1SOL    HW2 5374   2.248   2.733   2.433  2.9516 -0.2283  0.1521
    1SOL    HW3 5375   2.336   2.738   2.310 -0.2147 -1.0921 -2.2087
    1SOL    MW4 5376   2.260   2.718   2.348  0.5553 -0.3164 -0.2108
    1SOL     OW 5377   2.486   2.817   2.252 -0.1417 -0.1832  0.3279
    1SOL    HW2 5378   2.564   2.768   2.280  0.2067  0.4697  0.5005
    1SOL    HW3 5379   2.490   2.814   2.156 -0.7113 -1.4203  0.3273
    1SOL    MW4 5380   2.497   2.810   2.243 -0.1709 -0.2601  0.3507
    1SOL     OW 5381   2.455   3.086   2.360  0.0089 -0.4449  0.2472
    1SOL    HW2 5382   2.542   3.113   2.331 -0.2901  0.5006  0.2101
    1SOL    HW3 5383   2.445   2.997   2.329  0.5118 -0.1495 -0.7594
    1SOL    MW4 5384   2.465   3.078   2.352  0.0358 -0.2813  0.1097
    1SOL     OW 5385   2.263   3.209   2.210  0.2907 -0.0322  0.1462
    1SOL    HW2 5386   2.277   3.300   2.238 -0.0422  0.2959 -0.7321
    1SOL    HW3 5387   2.326   3.159   2.261  0.1615  0.6374  0.9772
    1SOL    MW4 5388   2.273   3.215   2.220  0.2298  0.0992  0.1400
    1SOL     OW 5389   2.249   3.468   2.322  0.1142  0.1347  0.0135
    1SOL    HW2 5390   2.231   3.464   2.416  0.0435  0.6602  0.0213
    1SOL    HW3 5391   2.169   3.506   2.284 -0.1437 -0.7546 -0.3409
    1SOL    MW4 5392   2.236   3.472   2.329  0.0710  0.0865 -0.0322
    1SOL     OW 5393   2.458   3.605   2.220  1.0269  0.1241 -0.5050
    1SOL    HW2 5394   2.450   3.693   2.256  1.1254 -0.2257  0.3885
    1SOL    HW3 5395   2.381   3.558   2.252  1.7291 -0.5348  0.2783
    1SOL    MW4 5396   2.447   3.610   2.229  1.1325 -0.0088 -0.2835
    1SOL     OW 5397   2.444   3.857   2.309 -0.0023 -0.4371  0.0689
    1SOL    HW2 5398   2.458   3.871   2.402  1.3552  0.0339 -0.1893
    1SOL    HW3 5399   2.376   3.920   2.284  0.2759  0.0624  0.5623
    1SOL    MW4 5400   2.437   3.867   2.318  0.2134 -0.3092  0.0999
    1SOL     OW 5401   2.258   4.055   2.230 -0.3587  0.2214  0.3988
    1SOL    HW2 5402   2.263   4.133   2.285 -1.2750  0.7570 -0.2660
    1SOL    HW3 5403   2.168   4.023   2.242 -0.6382  0.4727 -0.9429
    1SOL    MW4 5404   2.246   4.061   2.239 -0.5162  0.3257  0.1342
    1SOL     OW 5405   2.243   4.306   2.354 -0.1090  0.5501  0.2044
    1SOL    HW2 5406   2.236   4.304   2.449  0.2785  2.2770  0.2836
    1SOL    HW3 5407   2.153   4.308   2.323 -0.2394 -0.1640  0.5232
    1SOL    MW4 5408   2.230   4.306   2.362 -0.0753  0.6843  0.2568
    1SOL     OW 5409   2.468   4.392   2.231  0.3466 -0.0976  0.3029
    1SOL    HW2 5410   2.530   4.338   2.280 -0.1303 -0.1867  0.8102
    1SOL    HW3 5411   2.383   4.370   2.267  0.0629  0.3692 -0.0748
    1SOL    MW4 5412   2.465   4.382   2.242  0.2465 -0.0482  0.3200
    1SOL     OW 5413   2.910   4.638   2.363 -0.5600  0.1403  0.0867
    1SOL    HW2 5414   2.994   4.661   2.322  0.6570 -0.3740  2.1975
    1SOL    HW3 5415   2.884   4.557   2.321 -0.3819  0.6965 -1.1199
    1SOL    MW4 5416   2.918   4.631   2.352 -0.3757  0.1459  0.2058
    1SOL     OW 5417   2.719   0.124   2.221  0.4355 -0.0254 -0.4245
    1SOL    HW2 5418   2.710   0.212   2.259 -0.1984 -0.4107  0.3212
    1SOL    HW3 5419   2.784   0.081   2.276  2.1561  0.6013 -1.9328
    1SOL    MW4 5420   2.726   0.130   2.233  0.5789  0.0064 -0.5250
    1SOL     OW 5421   2.714   0.398   2.308 -0.1034  0.2275 -0.1368
    1SOL    HW2 5422   2.708   0.396   2.404 -0.4942  1.3683 -0.1332
    1SOL    HW3 5423   2.781   0.465   2.290  0.5558 -0.5639 -0.6379
    1SOL    MW4 5424   2.722   0.407   2.318 -0.0677  0.2736 -0.2027
    1SOL     OW 5425   2.924   0.536   2.226  0.0663  0.3378  0.5675
    1SOL    HW2 5426   2.922   0.628   2.252 -2.3779  0.5612 -0.2647
    1SOL    HW3 5427   2.910   0.538   2.131 -0.4259 -0.9109  0.6065
    1SOL    MW4 5428   2.922   0.548   2.217 -0.3211  0.2025  0.4625
    1SOL     OW 5429   2.886   0.786   2.309  0.4344  0.4587 -0.0097
    1SOL    HW2 5430   2.873   0.788   2.404 -1.1532 -0.7794 -0.1888
    1SOL    HW3 5431   2.807   0.826   2.273  0.1339 -0.8969 -0.8766
    1SOL    MW4 5432   2.874   0.792   2.317  0.1850  0.1165 -0.1478
    1SOL     OW 5433   2.639   0.889   2.238 -0.5505  0.1481  0.0837
    1SOL    HW2 5434   2.664   0.977   2.264  1.7690 -0.4030 -0.2116
    1SOL    HW3 5435   2.638   0.891   2.142 -1.3894  0.0862  0.0869
    1SOL    MW4 5436   2.642   0.901   2.229 -0.3550  0.0673  0.0453
    1SOL     OW 5437   2.683   1.146   2.329 -0.2692 -0.0740  0.4200
    1SOL    HW2 5438   2.689   1.157   2.424  0.4200  1.5798  0.2119
    1SOL    HW3 5439   2.768   1.176   2.297  0.4568 -3.0022 -0.5548
    1SOL    MW4 5440   2.695   1.151   2.338 -0.0825 -0.2421  0.2639
    1SOL     OW 5441   2.915   1.259   2.264 -0.1756 -0.7299 -0.1064
    1SOL    HW2 5442   2.987   1.218   2.313  0.6505 -1.1609 -1.6603
    1SOL    HW3 5443   2.945   1.259   2.173 -1.4128  0.6856 -0.5224
    1SOL    MW4 5444   2.929   1.253   2.259 -0.2301 -0.5999 -0.3660
    1SOL     OW 5445   2.922   1.532   2.323  0.3510  0.2880 -0.0781
    1SOL    HW2 5446   2.916   1.536   2.418 -0.5307  0.8807 -0.1554
    1SOL    HW3 5447   2.937   1.439   2.305  0.1103  0.1076  0.6180
    1SOL    MW4 5448   2.923   1.520   2.333  0.2027  0.3425  0.0036
    1SOL     OW 5449   2.704   1.707   2.201  0.1180  0.4036 -0.1524
    1SOL    HW2 5450   2.773   1.646   2.229 -0.9390 -0.0493  1.5704
    1SOL    HW3 5451   2.696   1.692   2.107  0.8531 -1.1130  0.0078
    1SOL    MW4 5452   2.712   1.697   2.192  0.0756  0.1439  0.0956
    1SOL     OW 5453   2.696   1.945   2.330  0.4621 -0.3235 -0.0354
    1SOL    HW2 5454   2.708   1.927   2.423  0.1786 -0.8725 -0.1057
    1SOL    HW3 5455   2.699   1.858   2.288 -0.4140 -0.1649 -0.4281
    1SOL    MW4 5456   2.698   1.931   2.336  0.3090 -0.3750 -0.0966
    1SOL     OW 5457   2.939   2.043   2.259 -0.1586  0.1334 -0.4189
    1SOL    HW2 5458   3.006   1.980   2.287 -1.0662 -0.3251  0.7439
    1SOL    HW3 5459   2.856   2.005   2.288 -0.6941  1.9422  0.4857
    1SOL    MW4 5460   2.937   2.030   2.267 -0.3495  0.3116 -0.1462
    1SOL     OW 5461   2.926   2.315   2.305  0.1635  0.2356 -0.1570
    1SOL    HW2 5462   2.929   2.319   2.401 -1.5618  2.2315 -0.1510
    1SOL    HW3 5463   2.923   2.222   2.286 -0.2418 -0.1797  1.7672
    1SOL    MW4 5464   2.926   2.303   2.315 -0.1175  0.4444  0.0978
    1SOL     OW 5465   2.685   2.426   2.242  0.3795 -0.0297 -0.1944
    1SOL    HW2 5466   2.762   2.378   2.272 -0.9724 -1.4775  1.0819
    1SOL    HW3 5467   2.693   2.429   2.147  1.2258 -1.5249 -0.1807
    1SOL    MW4 5468   2.696   2.420   2.233  0.3128 -0.4179 -0.0238
    1SOL     OW 5469   2.718   2.700   2.343 -0.4418  0.2794 -0.2560
    1SOL    HW2 5470   2.801   2.738   2.313 -0.6747  1.9847  1.1268
    1SOL    HW3 5471   2.717   2.612   2.306  1.1789  0.8410 -1.7260
    1SOL    MW4 5472   2.729   2.694   2.335 -0.2589  0.5779 -0.2675
    1SOL     OW 5473   2.952   2.832   2.189  0.3284 -0.3335 -0.1881
    1SOL    HW2 5474   2.931   2.917   2.227 -0.2312  0.0935 -1.4287
    1SOL    HW3 5475   2.961   2.849   2.096  2.8308 -1.1436 -0.1439
    1SOL    MW4 5476   2.951   2.845   2.182  0.5846 -0.3843 -0.3459
    1SOL     OW 5477   2.907   3.064   2.321  0.5977  0.3225  0.2523
    1SOL    HW2 5478   2.979   3.117   2.287  0.7092 -0.6071 -0.9943
    1SOL    HW3 5479   2.829   3.120   2.308  0.6687  0.0924 -1.3579
    1SOL    MW4 5480   2.906   3.079   2.314  0.6218  0.1698 -0.1247
    1SOL     OW 5481   2.678   3.202   2.266  0.4622  0.3289 -0.0488
    1SOL    HW2 5482   2.677   3.294   2.293 -0.5144  0.3968 -0.3130
    1SOL    HW3 5483   2.668   3.205   2.171  0.6584 -0.0390 -0.0785
    1SOL    MW4 5484   2.676   3.215   2.257  0.3595  0.2892 -0.0880
    1SOL     OW 5485   2.672   3.469   2.335 -0.0744 -0.6742  0.0233
    1SOL    HW2 5486   2.742   3.524   2.300  0.6090 -0.8409  1.1250
    1SOL    HW3 5487   2.592   3.505   2.296  0.3855  0.9120  0.4923
    1SOL    MW4 5488   2.670   3.481   2.325  0.0763 -0.4871  0.2303
    1SOL     OW 5489   2.897   3.614   2.257 -0.3895 -0.2182  0.2798
    1SOL    HW2 5490   2.976   3.571   2.291 -0.0017  0.9734  0.9102
    1SOL    HW3 5491   2.905   3.705   2.286 -1.5170  0.1342 -0.4978
    1SOL    MW4 5492   2.908   3.620   2.265 -0.4873 -0.0143  0.2604
    1SOL     OW 5493   2.909   3.874   2.356  0.0202  0.0965  0.1745
    1SOL    HW2 5494   2.893   3.893   2.448  0.5894 -0.9993  0.5073
    1SOL    HW3 5495   2.826   3.897   2.312 -0.1298  0.9637  0.8915
    1SOL    MW4 5496   2.896   3.880   2.362  0.0756  0.0663  0.3130
    1SOL     OW 5497   2.680   3.998   2.251  0.2998  0.4432  0.4384
    1SOL    HW2 5498   2.602   3.949   2.279  0.5224  0.0700  0.4014
    1SOL    HW3 5499   2.682   3.986   2.156 -0.8522  2.2764  0.1381
    1SOL    MW4 5500   2.670   3.990   2.242  0.1771  0.6356  0.3939
    1SOL     OW 5501   2.653   4.253   2.366 -0.6471 -0.0658 -0.4018
    1SOL    HW2 5502   2.641   4.254   2.461  1.8928  0.7970 -0.0743
    1SOL    HW3 5503   2.655   4.160   2.343 -0.6994 -0.2829  0.4579
    1SOL    MW4 5504   2.651   4.241   2.375 -0.3188  0.0191 -0.2451
    1SOL     OW 5505   2.908   4.362   2.251 -0.3433  0.0747  0.5388
    1SOL    HW2 5506   2.977   4.314   2.296  0.5852  0.7067 -0.2076
    1SOL    HW3 5507   2.827   4.328   2.290  0.2706 -2.2752 -0.1443
    1SOL    MW4 5508   2.906   4.351   2.262 -0.1400 -0.1521  0.3502
    1SOL     OW 5509   3.334   4.636   2.348  0.1055  0.7178 -0.6067
    1SOL    HW2 5510   3.323   4.645   2.442  0.8486 -0.3006 -0.4207
    1SOL    HW3 5511   3.421   4.673   2.330  0.0134  0.8087 -0.8731
    1SOL    MW4 5512   3.344   4.642   2.358  0.1915  0.5956 -0.6173
    1SOL     OW 5513   3.132   0.090   2.224 -0.2498 -0.3551  0.0898
    1SOL    HW2 5514   3.146   0.180   2.254 -1.5130 -0.1421  0.0629
    1SOL    HW3 5515   3.201   0.039   2.267 -0.1535  0.4648  0.9147
    1SOL    MW4 5516   3.143   0.095   2.234 -0.4036 -0.2188  0.1953
    1SOL     OW 5517   3.149   0.358   2.301 -0.1536 -0.2303  0.1802
    1SOL    HW2 5518   3.225   0.416   2.291 -1.0499  0.7818 -1.1128
    1SOL    HW3 5519   3.074   0.415   2.280 -1.1315 -1.6036 -0.0857
    1SOL    MW4 5520   3.149   0.373   2.297 -0.4008 -0.2779 -0.0255
    1SOL     OW 5521   3.379   0.535   2.271  0.2001 -0.3146  0.0417
    1SOL    HW2 5522   3.449   0.481   2.307 -0.9402 -1.0485  1.1917
    1SOL    HW3 5523   3.381   0.518   2.177  0.5254 -1.5456  0.2674
    1SOL    MW4 5524   3.389   0.526   2.263  0.0925 -0.5739  0.2229
    1SOL     OW 5525   3.367   0.798   2.371  0.2045 -0.1633 -0.5057
    1SOL    HW2 5526   3.441   0.849   2.338  0.2683  0.3624  0.4320
    1SOL    HW3 5527   3.391   0.707   2.354  0.1566  0.0890 -2.0574
    1SOL    MW4 5528   3.380   0.793   2.364  0.2065 -0.0606 -0.5865
    1SOL     OW 5529   3.133   0.919   2.246 -0.3937  0.0874 -0.7355
    1SOL    HW2 5530   3.201   0.852   2.257 -0.1642  0.7287  2.1333
    1SOL    HW3 5531   3.056   0.883   2.290 -0.0924  1.9280  1.3566
    1SOL    MW4 5532   3.132   0.905   2.253 -0.3238  0.4148 -0.0811
    1SOL     OW 5533   3.133   1.147   2.384  0.6047  0.1188 -0.1978
    1SOL    HW2 5534   3.194   1.213   2.350  1.5278 -0.0757  1.0637
    1SOL    HW3 5535   3.151   1.069   2.332  1.3034  0.1123  0.0532
    1SOL    MW4 5536   3.144   1.145   2.372  0.8187  0.0924  0.0019
    1SOL     OW 5537   3.312   1.321   2.266  0.2198  0.6280  0.1378
    1SOL    HW2 5538   3.385   1.268   2.298  0.6859  0.5434 -1.0335
    1SOL    HW3 5539   3.330   1.409   2.299 -0.6759  0.0573  2.2857
    1SOL    MW4 5540   3.324   1.325   2.275  0.1633  0.5416  0.2666
    1SOL     OW 5541   3.414   1.556   2.376  0.0921 -0.0406  0.1971
    1SOL    HW2 5542   3.392   1.536   2.467 -0.8064  0.3707  0.0743
    1SOL    HW3 5543   3.341   1.609   2.345 -0.3410 -1.4258 -1.2140
    1SOL    MW4 5544   3.401   1.561   2.384 -0.0837 -0.1692 -0.0052
    1SOL     OW 5545   3.172   1.640   2.245  0.4252  0.0746 -0.0967
    1SOL    HW2 5546   3.168   1.726   2.286 -0.6008  0.2098 -0.4695
    1SOL    HW3 5547   3.088   1.600   2.265  1.1365 -1.1012  0.6200
    1SOL    MW4 5548   3.161   1.646   2.253  0.3836 -0.0627 -0.0513
    1SOL     OW 5549   3.146   1.882   2.361 -0.1545 -0.5164 -0.2431
    1SOL    HW2 5550   3.142   1.871   2.456  0.5235 -0.8702 -0.2513
    1SOL    HW3 5551   3.195   1.963   2.348 -0.9148 -0.0546 -0.2822
    1SOL    MW4 5552   3.152   1.891   2.372 -0.1655 -0.5022 -0.2491
    1SOL     OW 5553   3.326   2.072   2.254  0.2409 -0.1997 -0.2696
    1SOL    HW2 5554   3.397   2.011   2.271 -0.0766 -0.8417 -1.1986
    1SOL    HW3 5555   3.310   2.065   2.160 -1.0834 -0.1190 -0.0675
    1SOL    MW4 5556   3.333   2.063   2.244  0.0241 -0.2739 -0.3655
    1SOL     OW 5557   3.399   2.321   2.330 -0.1049  0.0633 -0.2583
    1SOL    HW2 5558   3.321   2.374   2.316  0.0280  0.5338  0.7469
    1SOL    HW3 5559   3.373   2.233   2.301 -1.2805  0.0352  0.8019
    1SOL    MW4 5560   3.385   2.316   2.324 -0.2425  0.1216  0.0143
    1SOL     OW 5561   3.170   2.430   2.229  0.2430  0.1005 -0.2811
    1SOL    HW2 5562   3.164   2.517   2.267  2.6909  0.0660  0.2795
    1SOL    HW3 5563   3.088   2.387   2.254 -0.2711  1.6918  0.8140
    1SOL    MW4 5564   3.158   2.436   2.237  0.4978  0.3061 -0.0625
    1SOL     OW 5565   3.161   2.699   2.355  0.3173  0.4643 -0.7333
    1SOL    HW2 5566   3.142   2.707   2.449 -1.6334 -1.6598 -0.9047
    1SOL    HW3 5567   3.084   2.737   2.312 -0.7772 -2.4199 -1.4460
    1SOL    MW4 5568   3.148   2.705   2.362 -0.0842 -0.1965 -0.8502
    1SOL     OW 5569   3.383   2.829   2.242 -0.2000 -0.3722 -0.3326
    1SOL    HW2 5570   3.373   2.920   2.270 -0.0515 -0.3023 -0.5008
    1SOL    HW3 5571   3.306   2.785   2.276  0.6091 -0.5733  1.2806
    1SOL    MW4 5572   3.372   2.835   2.250 -0.0737 -0.3898 -0.1421
    1SOL     OW 5573   3.355   3.066   2.369  0.4215  0.0623 -0.3969
    1SOL    HW2 5574   3.427   3.118   2.334 -0.0347  1.1182  0.2181
    1SOL    HW3 5575   3.276   3.110   2.338  0.0219 -0.8917 -0.7856
    1SOL    MW4 5576   3.354   3.078   2.360  0.3088  0.0758 -0.3669
    1SOL     OW 5577   3.147   3.209   2.260 -0.6240 -0.2241  0.0481
    1SOL    HW2 5578   3.136   3.297   2.296 -2.5284 -1.2151  1.9657
    1SOL    HW3 5579   3.132   3.220   2.166 -1.5648  1.3867  0.3642
    1SOL    MW4 5580   3.143   3.222   2.252 -0.9995 -0.1421  0.3428
    1SOL     OW 5581   3.129   3.469   2.332  0.5786 -0.1299 -0.4401
    1SOL    HW2 5582   3.137   3.461   2.427  0.0663 -0.1986 -0.4017
    1SOL    HW3 5583   3.210   3.512   2.304 -0.1974  1.8300  0.2600
    1SOL    MW4 5584   3.141   3.473   2.341  0.4084  0.1197 -0.3421
    1SOL     OW 5585   3.362   3.599   2.252 -0.3886 -0.6738 -0.1105
    1SOL    HW2 5586   3.436   3.561   2.300  0.2795  0.2431 -0.3923
    1SOL    HW3 5587   3.387   3.591   2.160  0.1688  1.2156 -0.1450
    1SOL    MW4 5588   3.375   3.593   2.246 -0.2267 -0.3035 -0.1519
    1SOL     OW 5589   3.313   3.864   2.323 -0.6099  0.3962 -0.2028
    1SOL    HW2 5590   3.398   3.905   2.306 -0.3955  0.1134  0.1888
    1SOL    HW3 5591   3.320   3.777   2.284 -0.7793  0.4336 -0.3192
    1SOL    MW4 5592   3.325   3.858   2.316 -0.6042  0.3638 -0.1664
    1SOL     OW 5593   3.095   3.992   2.208 -0.0687  0.5077 -0.2060
    1SOL    HW2 5594   3.180   3.957   2.235 -0.0604 -0.3351 -1.3057
    1SOL    HW3 5595   3.032   3.952   2.269  0.2250  0.5211  0.1074
    1SOL    MW4 5596   3.098   3.982   2.220 -0.0288  0.3982 -0.3097
    1SOL     OW 5597   3.093   4.224   2.368 -0.0194  0.2452  0.0592
    1SOL    HW2 5598   3.164   4.281   2.340 -0.9889  1.2139 -0.4475
    1SOL    HW3 5599   3.100   4.147   2.311  0.4721  0.4318 -0.1329
    1SOL    MW4 5600   3.103   4.221   2.357 -0.0827  0.3977 -0.0329
    1SOL     OW 5601   3.310   4.372   2.251  0.1364  0.6179  0.3532
    1SOL    HW2 5602   3.306   4.465   2.272 -1.3530  0.7177 -0.3218
    1SOL    HW3 5603   3.335   4.369   2.159 -0.6099  0.3577  0.1647
    1SOL    MW4 5604   3.313   4.384   2.242 -0.1583  0.5965  0.2394
    1SOL     OW 5605   3.809   4.652   2.355 -0.1617  0.8466  0.0522
    1SOL    HW2 5606   3.807   4.654   2.451 -0.6306  0.6499  0.0461
    1SOL    HW3 5607   3.895   4.687   2.333  0.2103  0.2849  0.5682
    1SOL    MW4 5608   3.820   4.657   2.365 -0.1748  0.7467  0.1194
    1SOL     OW 5609   3.556   0.114   2.295 -0.2555 -0.0936  0.0178
    1SOL    HW2 5610   3.551   0.205   2.325 -1.3514  0.4499 -1.7272
    1SOL    HW3 5611   3.644   0.085   2.319 -0.2000  1.1558  1.3453
    1SOL    MW4 5612   3.567   0.122   2.302 -0.3927  0.1430 -0.0372
    1SOL     OW 5613   3.590   0.384   2.332  0.1342 -0.2525 -0.3469
    1SOL    HW2 5614   3.586   0.382   2.428 -0.0432 -0.7512 -0.3623
    1SOL    HW3 5615   3.680   0.407   2.312 -0.0197  0.6149 -0.0553
    1SOL    MW4 5616   3.601   0.386   2.342  0.0904 -0.2038 -0.3104
    1SOL     OW 5617   3.818   0.505   2.251 -0.1952  0.1316  0.0232
    1SOL    HW2 5618   3.795   0.595   2.274 -0.1783  0.3997 -1.0099
    1SOL    HW3 5619   3.791   0.495   2.160  1.9485 -0.1656 -0.6211
    1SOL    MW4 5620   3.812   0.515   2.242  0.0899  0.1277 -0.1981
    1SOL     OW 5621   3.773   0.776   2.335 -0.7519  0.1590  0.0936
    1SOL    HW2 5622   3.764   0.794   2.428 -1.1495  0.7749 -0.0642
    1SOL    HW3 5623   3.856   0.818   2.310 -0.1718 -0.7967  0.3588
    1SOL    MW4 5624   3.783   0.784   2.344 -0.7279  0.1143  0.1078
    1SOL     OW 5625   3.583   0.949   2.243  0.1557 -0.0168  0.3732
    1SOL    HW2 5626   3.655   0.897   2.280 -1.3261 -2.5802 -0.1718
    1SOL    HW3 5627   3.576   0.918   2.152 -0.3771  1.6029 -0.1504
    1SOL    MW4 5628   3.592   0.938   2.236 -0.1101 -0.1413  0.2322
    1SOL     OW 5629   3.519   1.195   2.382  0.4092 -0.2346  0.0799
    1SOL    HW2 5630   3.540   1.192   2.475 -1.5073 -0.9070  0.5259
    1SOL    HW3 5631   3.545   1.109   2.349  1.8378  0.2942 -0.1857
    1SOL    MW4 5632   3.525   1.183   2.390  0.3445 -0.2536  0.1037
    1SOL     OW 5633   3.765   1.291   2.276 -0.2150 -0.3549  0.6698
    1SOL    HW2 5634   3.781   1.383   2.298 -0.8633  0.1058 -0.7213
    1SOL    HW3 5635   3.679   1.272   2.312 -0.1464 -0.3671  0.8254
    1SOL    MW4 5636   3.756   1.300   2.284 -0.2916 -0.2958  0.5069
    1SOL     OW 5637   3.831   1.541   2.353  0.6587  0.0196 -0.6198
    1SOL    HW2 5638   3.812   1.547   2.447 -0.4822 -3.2019 -0.5765
    1SOL    HW3 5639   3.762   1.594   2.312 -0.0179 -0.1520  0.2718
    1SOL    MW4 5640   3.819   1.549   2.360  0.4189 -0.4281 -0.4964
    1SOL     OW 5641   3.624   1.667   2.233  0.3951 -0.4099  0.0039
    1SOL    HW2 5642   3.558   1.625   2.288  1.5085 -0.7961  1.0586
    1SOL    HW3 5643   3.586   1.667   2.145 -0.9375 -0.7618  0.5723
    1SOL    MW4 5644   3.610   1.662   2.229  0.3662 -0.5074  0.2182
    1SOL     OW 5645   3.557   1.930   2.310 -0.4620  0.0730 -0.0347
    1SOL    HW2 5646   3.625   1.982   2.267  1.2726  0.1736  2.7064
    1SOL    HW3 5647   3.579   1.839   2.288 -0.3088  0.1880 -0.3598
    1SOL    MW4 5648   3.569   1.925   2.301 -0.2131  0.1014  0.2840
    1SOL     OW 5649   3.799   2.064   2.229 -0.2829  0.0264 -0.8447
    1SOL    HW2 5650   3.864   2.002   2.260  1.5940  2.4495  0.1813
    1SOL    HW3 5651   3.812   2.067   2.134  0.5166 -0.1383 -0.7429
    1SOL    MW4 5652   3.809   2.056   2.221  0.0703  0.3242 -0.6962
    1SOL     OW 5653   3.847   2.314   2.326 -0.9704  0.2059  0.0810
    1SOL    HW2 5654   3.762   2.343   2.292 -1.4575 -0.6958  0.5189
    1SOL    HW3 5655   3.858   2.225   2.293 -1.4583 -0.6982  2.2564
    1SOL    MW4 5656   3.837   2.306   2.318 -1.0989 -0.0324  0.4256
    1SOL     OW 5657   3.613   2.449   2.215  0.0535 -0.2439  0.4439
    1SOL    HW2 5658   3.527   2.410   2.231 -0.1088  0.1274  0.4864
    1SOL    HW3 5659   3.623   2.444   2.120 -0.1530 -0.0036  0.4079
    1SOL    MW4 5660   3.603   2.443   2.204  0.0048 -0.1633  0.4447
    1SOL     OW 5661   3.606   2.702   2.342 -0.2979  0.3395 -0.2875
    1SOL    HW2 5662   3.596   2.617   2.299  0.0710 -0.0387  0.3721
    1SOL    HW3 5663   3.532   2.754   2.309 -1.0167 -0.5085 -0.0332
    1SOL    MW4 5664   3.595   2.698   2.332 -0.3440  0.1779 -0.1667
    1SOL     OW 5665   3.834   2.849   2.259  0.6448 -0.3637  0.8051
    1SOL    HW2 5666   3.822   2.937   2.296 -0.4010  0.4769 -1.4751
    1SOL    HW3 5667   3.752   2.804   2.276  0.2292 -0.0370 -0.3051
    1SOL    MW4 5668   3.822   2.854   2.266  0.4520 -0.2096  0.3579
    1SOL     OW 5669   3.790   3.116   2.323  0.4230 -0.5012 -0.2686
    1SOL    HW2 5670   3.791   3.113   2.418 -1.3990  1.3961 -0.1370
    1SOL    HW3 5671   3.876   3.150   2.299  0.5301 -0.0251  0.7694
    1SOL    MW4 5672   3.802   3.120   2.332  0.1967 -0.1879 -0.1142
    1SOL     OW 5673   3.550   3.208   2.225  0.3996 -0.4165  0.0774
    1SOL    HW2 5674   3.548   3.289   2.276 -0.0366 -0.2086 -0.2677
    1SOL    HW3 5675   3.635   3.169   2.246  0.0365 -0.5564  1.3032
    1SOL    MW4 5676   3.561   3.213   2.235  0.2942 -0.4077  0.1938
    1SOL     OW 5677   3.581   3.474   2.357  0.5928 -0.3093  0.3114
    1SOL    HW2 5678   3.585   3.486   2.452  0.0098  0.3783  0.2488
    1SOL    HW3 5679   3.659   3.518   2.324 -0.0930  0.9232  0.3258
    1SOL    MW4 5680   3.592   3.481   2.365  0.4251 -0.0558  0.3049
    1SOL     OW 5681   3.799   3.593   2.261  0.0831 -0.0953 -0.0603
    1SOL    HW2 5682   3.808   3.683   2.291  3.8296 -0.8486  1.3820
    1SOL    HW3 5683   3.810   3.598   2.166 -0.5827  1.0644 -0.0774
    1SOL    MW4 5684   3.802   3.606   2.253  0.4897 -0.0417  0.1276
    1SOL     OW 5685   3.815   3.859   2.367 -0.3160  0.2946  0.0762
    1SOL    HW2 5686   3.823   3.876   2.461 -1.4978  1.6468 -0.0544
    1SOL    HW3 5687   3.895   3.894   2.329  1.1400 -2.1182  0.7906
    1SOL    MW4 5688   3.827   3.866   2.374 -0.2797  0.1545  0.1533
    1SOL     OW 5689   3.552   3.987   2.280  0.1377  0.2050  0.3441
    1SOL    HW2 5690   3.546   4.079   2.305  1.7161  0.9698 -1.9018
    1SOL    HW3 5691   3.631   3.956   2.323 -0.5883 -0.2206  1.3923
    1SOL    MW4 5692   3.562   3.995   2.289  0.2501  0.2496  0.1860
    1SOL     OW 5693   3.542   4.241   2.371  0.1018  0.2817 -0.5345
    1SOL    HW2 5694   3.612   4.296   2.337  0.3461  0.1616 -0.2245
    1SOL    HW3 5695   3.463   4.294   2.359  0.5037  1.2933  1.0529
    1SOL    MW4 5696   3.541   4.255   2.365  0.1874  0.3996 -0.2842
    1SOL     OW 5697   3.757   4.381   2.281 -0.2906  0.4699 -0.3246
    1SOL    HW2 5698   3.838   4.339   2.310 -0.1215  1.7195  1.0699
    1SOL    HW3 5699   3.765   4.472   2.310 -2.8080  0.2803  1.1503
    1SOL    MW4 5700   3.769   4.387   2.289 -0.6003  0.6099  0.0541
    1SOL     OW 5701   4.224   4.629   2.354  0.4022 -0.0452 -0.3048
    1SOL    HW2 5702   4.221   4.636   2.449 -0.1704  1.4693 -0.4105
    1SOL    HW3 5703   4.303   4.677   2.329  0.2953 -0.0318 -0.6232
    1SOL    MW4 5704   4.234   4.636   2.363  0.3123  0.1569 -0.3607
    1SOL     OW 5705   4.029   0.131   2.239 -0.0790 -0.3247  0.0836
    1SOL    HW2 5706   4.035   0.210   2.294  1.4375 -0.9867  0.9247
    1SOL    HW3 5707   4.087   0.068   2.283 -0.4845 -1.5646 -1.1428
    1SOL    MW4 5708   4.038   0.133   2.252  0.0668 -0.5756  0.0329
    1SOL     OW 5709   4.040   0.365   2.379 -0.1615 -0.0017 -0.3507
    1SOL    HW2 5710   4.116   0.395   2.329 -0.3289  2.1840  0.6697
    1SOL    HW3 5711   3.969   0.422   2.352 -1.6362 -2.3961 -1.7149
    1SOL    MW4 5712   4.041   0.376   2.369 -0.3786 -0.0293 -0.3958
    1SOL     OW 5713   4.252   0.462   2.213  0.1994  0.4764  0.2557
    1SOL    HW2 5714   4.260   0.556   2.227  1.6510  0.5432 -0.7891
    1SOL    HW3 5715   4.321   0.424   2.268 -1.2334 -0.0905  1.6873
    1SOL    MW4 5716   4.262   0.469   2.222  0.2022  0.4104  0.3066
    1SOL     OW 5717   4.231   0.729   2.298 -0.5081  0.1131 -0.2867
    1SOL    HW2 5718   4.160   0.793   2.299 -0.2466  0.4045  0.1437
    1SOL    HW3 5719   4.311   0.783   2.294 -0.2323 -0.1326  1.5546
    1SOL    MW4 5720   4.232   0.745   2.298 -0.4373  0.1191  0.0129
    1SOL     OW 5721   4.018   0.895   2.276  0.0719  0.2898 -0.0924
    1SOL    HW2 5722   4.036   0.980   2.316 -0.3921  0.6397 -0.6080
    1SOL    HW3 5723   4.008   0.915   2.183 -0.0141 -0.3364 -0.2159
    1SOL    MW4 5724   4.019   0.909   2.269 -0.0014  0.2534 -0.1764
    1SOL     OW 5725   3.999   1.153   2.358 -0.2891 -0.1492 -0.2287
    1SOL    HW2 5726   3.999   1.166   2.453  0.7470  1.5840 -0.4634
    1SOL    HW3 5727   3.913   1.183   2.330  0.1356  1.2100 -0.0867
    1SOL    MW4 5728   3.988   1.159   2.367 -0.0963  0.2589 -0.2408
    1SOL     OW 5729   4.218   1.327   2.282 -0.3782 -0.3453 -0.1266
    1SOL    HW2 5730   4.151   1.267   2.312  0.1575 -1.7202 -1.6239
    1SOL    HW3 5731   4.301   1.281   2.298  0.1419  0.7222  0.3436
    1SOL    MW4 5732   4.220   1.313   2.288 -0.2394 -0.3858 -0.2618
    1SOL     OW 5733   4.273   1.569   2.402  0.2464 -0.3037 -0.1178
    1SOL    HW2 5734   4.252   1.488   2.356 -0.4302 -0.0299 -0.2864
    1SOL    HW3 5735   4.352   1.602   2.358 -0.5461  0.0957 -1.2561
    1SOL    MW4 5736   4.281   1.563   2.390  0.0525 -0.2149 -0.2902
    1SOL     OW 5737   4.065   1.651   2.233 -0.6082  0.0078 -0.0097
    1SOL    HW2 5738   4.145   1.632   2.283 -0.5708  0.8614  0.2675
    1SOL    HW3 5739   3.997   1.599   2.276 -0.3979  0.0488  0.3757
    1SOL    MW4 5740   4.067   1.642   2.246 -0.5755  0.1259  0.0777
    1SOL     OW 5741   3.996   1.904   2.317 -0.1328 -0.6995 -0.4918
    1SOL    HW2 5742   4.000   1.905   2.412 -2.8633  0.8079 -0.3386
    1SOL    HW3 5743   4.008   1.812   2.293  0.2473 -1.1261  1.3100
    1SOL    MW4 5744   3.998   1.892   2.326 -0.4432 -0.5569 -0.2339
    1SOL     OW 5745   4.244   2.034   2.237  0.5676 -0.5253 -0.1165
    1SOL    HW2 5746   4.247   2.121   2.277  0.9342 -0.4610 -0.2756
    1SOL    HW3 5747   4.163   1.995   2.269  1.2452 -0.7773  1.3133
    1SOL    MW4 5748   4.234   2.040   2.247  0.7052 -0.5500  0.0513
    1SOL     OW 5749   4.278   2.299   2.359  0.2179 -0.2614 -0.2327
    1SOL    HW2 5750   4.204   2.358   2.344  0.7167  0.1976 -0.8774
    1SOL    HW3 5751   4.356   2.351   2.339  0.6766 -1.0686 -0.5861
    1SOL    MW4 5752   4.279   2.314   2.355  0.3443 -0.3073 -0.3645
    1SOL     OW 5753   4.061   2.458   2.272 -0.3360  0.1916 -0.4695
    1SOL    HW2 5754   4.046   2.543   2.313 -0.0552 -1.2153  2.7617
    1SOL    HW3 5755   3.982   2.407   2.291  0.5422 -1.0722 -0.0558
    1SOL    MW4 5756   4.049   2.462   2.280 -0.1831 -0.1605  0.0114
    1SOL     OW 5757   4.069   2.722   2.342  0.1011 -0.1742  0.4200
    1SOL    HW2 5758   4.061   2.715   2.437  1.4033  0.4900  0.5907
    1SOL    HW3 5759   3.990   2.768   2.314  0.1188  0.3720  1.2623
    1SOL    MW4 5760   4.058   2.727   2.351  0.2747 -0.0148  0.5536
    1SOL     OW 5761   4.290   2.852   2.247 -0.2640  0.5596  0.3481
    1SOL    HW2 5762   4.213   2.805   2.279  0.5415 -0.2614  1.1153
    1SOL    HW3 5763   4.365   2.804   2.284  0.7158 -0.6721 -3.0750
    1SOL    MW4 5764   4.290   2.839   2.256 -0.0281  0.2890 -0.0024
    1SOL     OW 5765   4.261   3.120   2.312 -0.8378  0.0993  0.1319
    1SOL    HW2 5766   4.270   3.027   2.294 -1.8353 -0.1415  0.7848
    1SOL    HW3 5767   4.348   3.157   2.300 -0.6047 -0.7843 -0.8899
    1SOL    MW4 5768   4.273   3.113   2.308 -0.9384 -0.0491  0.0832
    1SOL     OW 5769   4.017   3.230   2.236 -0.0682  0.0640  0.1207
    1SOL    HW2 5770   4.025   3.324   2.255 -0.3467  0.1645 -0.2518
    1SOL    HW3 5771   4.100   3.193   2.266  0.1203  0.4575  0.0963
    1SOL    MW4 5772   4.029   3.238   2.243 -0.0801  0.1292  0.0684
    1SOL     OW 5773   4.009   3.488   2.395 -0.0746  0.1491 -0.1879
    1SOL    HW2 5774   4.073   3.534   2.340 -0.5275  0.4677 -0.4464
    1SOL    HW3 5775   3.924   3.511   2.358 -0.3412 -0.2897  0.1490
    1SOL    MW4 5776   4.006   3.497   2.383 -0.1698  0.1333 -0.1771
    1SOL     OW 5777   4.230   3.574   2.245  0.1810  0.3775  0.4386
    1SOL    HW2 5778   4.258   3.663   2.268 -0.7300  0.7715  0.0144
    1SOL    HW3 5779   4.241   3.569   2.150  0.7290 -0.1404  0.5255
    1SOL    MW4 5780   4.235   3.585   2.236  0.1326  0.3612  0.3941
    1SOL     OW 5781   4.292   3.830   2.339  0.3756 -0.1613  0.2734
    1SOL    HW2 5782   4.298   3.848   2.432 -0.1566  0.7291  0.1465
    1SOL    HW3 5783   4.368   3.875   2.301 -0.1674  0.6342  0.1205
    1SOL    MW4 5784   4.303   3.838   2.346  0.2341  0.0610  0.2367
    1SOL     OW 5785   4.055   3.970   2.290 -0.1158  0.2596 -0.0291
    1SOL    HW2 5786   4.136   3.923   2.312 -0.7261 -0.8685 -0.1317
    1SOL    HW3 5787   4.047   3.960   2.195 -0.0534  0.8993 -0.1011
    1SOL    MW4 5788   4.065   3.962   2.280 -0.1884  0.1950 -0.0520
    1SOL     OW 5789   3.980   4.230   2.337 -0.0982  0.2930 -0.1271
    1SOL    HW2 5790   4.056   4.285   2.318 -0.0503  0.0156 -0.7409
    1SOL    HW3 5791   4.011   4.141   2.322 -0.6832  0.2101 -0.8847
    1SOL    MW4 5792   3.994   4.226   2.332 -0.1693  0.2460 -0.3083
    1SOL     OW 5793   4.211   4.347   2.261 -0.4812 -0.1143  0.4638
    1SOL    HW2 5794   4.217   4.439   2.289  1.5109  0.3127 -1.2625
    1SOL    HW3 5795   4.289   4.306   2.299 -1.2064 -1.0287  0.9745
    1SOL    MW4 5796   4.222   4.354   2.270 -0.3142 -0.1788  0.3037
    1SOL     OW 5797   0.182   0.017   2.649  0.0882  0.4014  0.0248
    1SOL    HW2 5798   0.194  -0.067   2.693  1.9322  0.0286 -1.1524
    1SOL    HW3 5799   0.100   0.051   2.685 -0.3641 -1.6082  0.9572
    1SOL    MW4 5800   0.173   0.011   2.660  0.2718  0.0868 -0.0079
    1SOL     OW 5801   4.439   0.134   2.721  0.3045  0.1095  0.2842
    1SOL    HW2 5802   4.432   0.145   2.816 -0.9205  0.6752  0.1298
    1SOL    HW3 5803   4.453   0.223   2.688  1.3225 -0.1584 -0.0209
    1SOL    MW4 5804   4.440   0.147   2.729  0.2775  0.1488  0.2232
    1SOL     OW 5805   4.451   0.406   2.627 -0.2326 -0.0887  0.0834
    1SOL    HW2 5806   4.527   0.458   2.651  0.2844 -1.3983  1.3814
    1SOL    HW3 5807   4.459   0.392   2.533  0.8456  0.2278  0.1261
    1SOL    MW4 5808   4.462   0.411   2.618 -0.0215 -0.2197  0.2604
    1SOL     OW 5809   0.204   0.559   2.744 -0.0803  0.0203  0.3126
    1SOL    HW2 5810   0.196   0.558   2.840 -0.7846 -1.0261  0.2496
    1SOL    HW3 5811   0.286   0.514   2.726  0.1849  0.4495  0.4292
    1SOL    MW4 5812   0.214   0.553   2.754 -0.1383 -0.0611  0.3195
    1SOL     OW 5813   0.243   0.824   2.626 -0.1290 -0.6213  0.2602
    1SOL    HW2 5814   0.319   0.869   2.664  0.6089 -1.6162 -0.0055
    1SOL    HW3 5815   0.237   0.742   2.674 -0.5389 -0.9062 -0.2662
    1SOL    MW4 5816   0.252   0.819   2.637 -0.0857 -0.7902  0.1557
    1SOL     OW 5817   4.483   0.928   2.701 -0.0116  0.0433  0.3324
    1SOL    HW2 5818   4.414   0.867   2.674  0.0329 -0.3952  1.2136
    1SOL    HW3 5819   4.565   0.885   2.674  0.0537 -0.5587  1.4643
    1SOL    MW4 5820   4.485   0.914   2.694  0.0029 -0.0940  0.5980
    1SOL     OW 5821   0.024   1.193   2.621  0.2360  0.4823 -0.2440
    1SOL    HW2 5822   0.091   1.233   2.676 -0.7194  1.2047  0.4216
    1SOL    HW3 5823   0.029   1.099   2.642 -0.6886  0.8415  1.7367
    1SOL    MW4 5824   0.033   1.186   2.631 -0.0121  0.6251  0.1051
    1SOL     OW 5825   0.223   1.287   2.784  0.6485  0.2595  0.0691
    1SOL    HW2 5826   0.289   1.250   2.726  0.5857 -0.6231  0.5453
    1SOL    HW3 5827   0.220   1.380   2.762  2.6623  0.4779  0.6105
    1SOL    MW4 5828   0.231   1.294   2.774  0.9059  0.1719  0.2031
    1SOL     OW 5829   0.195   1.532   2.652  0.6432  0.1391 -0.2711
    1SOL    HW2 5830   0.261   1.589   2.690  0.2876 -0.1729  0.8233
    1SOL    HW3 5831   0.112   1.564   2.686  0.1738  0.7427 -1.9054
    1SOL    MW4 5832   0.193   1.544   2.661  0.5344  0.1776 -0.3419
    1SOL     OW 5833   4.437   1.643   2.764 -0.3024 -0.3726  0.1868
    1SOL    HW2 5834   4.450   1.627   2.858 -0.1646 -0.2836  0.1833
    1SOL    HW3 5835   4.448   1.737   2.754 -0.4454 -0.3652  0.1006
    1SOL    MW4 5836   4.441   1.653   2.775 -0.3033 -0.3600  0.1748
    1SOL     OW 5837   4.466   1.925   2.706 -0.2981  0.4489 -0.0854
    1SOL    HW2 5838   4.549   1.968   2.724  1.0926 -2.3149  0.3621
    1SOL    HW3 5839   4.456   1.930   2.611  1.2052 -0.6349 -0.3162
    1SOL    MW4 5840   4.475   1.931   2.696  0.0839 -0.0588 -0.0570
    1SOL     OW 5841   0.202   2.068   2.777  0.3555 -0.1300  0.2556
    1SOL    HW2 5842   0.281   2.029   2.740  1.3347  1.1586  0.9261
    1SOL    HW3 5843   0.194   2.153   2.733 -0.7568 -0.3267  0.0618
    1SOL    MW4 5844   0.211   2.074   2.766  0.3379  0.0141  0.3183
    1SOL     OW 5845   0.186   2.297   2.640  0.0933  0.3877  0.0137
    1SOL    HW2 5846   0.266   2.337   2.674  0.7862 -0.2926 -0.7906
    1SOL    HW3 5847   0.115   2.341   2.688  0.8909  1.6750  0.0492
    1SOL    MW4 5848   0.187   2.308   2.651  0.2899  0.4675 -0.0880
    1SOL     OW 5849   0.014   2.452   2.787 -0.0464  0.4546 -0.5332
    1SOL    HW2 5850   0.002   2.443   2.882 -0.4846 -2.4187 -0.8302
    1SOL    HW3 5851  -0.065   2.412   2.749  0.5190  0.8303 -2.1390
    1SOL    MW4 5852   0.002   2.446   2.795 -0.0296  0.1249 -0.7844
    1SOL     OW 5853   0.010   2.690   2.615  0.5429  0.2946  0.0326
    1SOL    HW2 5854  -0.062   2.747   2.641  0.9880  0.3433  1.2108
    1SOL    HW3 5855   0.014   2.623   2.684  1.3895  0.0925 -0.1966
    1SOL    MW4 5856   0.001   2.689   2.628  0.7133  0.2744  0.1576
    1SOL     OW 5857   0.228   2.858   2.744 -0.5740 -0.3474 -0.3915
    1SOL    HW2 5858   0.230   2.949   2.713  0.4578 -0.4683 -0.6985
    1SOL    HW3 5859   0.156   2.818   2.696 -2.0173  0.6876  0.8458
    1SOL    MW4 5860   0.219   2.865   2.734 -0.6283 -0.2265 -0.2689
    1SOL     OW 5861   0.218   3.145   2.701  0.1402 -0.3513 -0.0445
    1SOL    HW2 5862   0.293   3.180   2.749 -0.7625  0.1879  0.9971
    1SOL    HW3 5863   0.249   3.134   2.611  0.9643  1.4280  0.0042
    1SOL    MW4 5864   0.232   3.148   2.696  0.1298 -0.0453  0.0992
    1SOL     OW 5865   4.473   3.279   2.780 -0.4595 -0.0933  0.1518
    1SOL    HW2 5866   4.406   3.243   2.722 -0.1798 -1.1792  0.5077
    1SOL    HW3 5867   4.554   3.235   2.755  0.2824  1.6996 -0.7330
    1SOL    MW4 5868   4.475   3.269   2.769 -0.3247 -0.0002  0.0820
    1SOL     OW 5869   0.027   3.529   2.614 -0.6615 -0.1097  0.2081
    1SOL    HW2 5870   0.092   3.574   2.667 -0.7074 -0.8460  0.8961
    1SOL    HW3 5871   0.026   3.439   2.648 -0.7965 -0.5476 -0.9330
    1SOL    MW4 5872   0.035   3.523   2.625 -0.6854 -0.2649  0.1481
    1SOL     OW 5873   0.247   3.644   2.744  0.2574 -0.4535 -0.2612
    1SOL    HW2 5874   0.250   3.613   2.834 -1.6326 -1.8735 -0.6631
    1SOL    HW3 5875   0.321   3.599   2.701  0.9618 -0.0193  0.4740
    1SOL    MW4 5876   0.257   3.634   2.750  0.1010 -0.5836 -0.2170
    1SOL     OW 5877   0.200   3.884   2.621  0.1940 -0.1204 -0.1425
    1SOL    HW2 5878   0.210   3.798   2.661 -2.3302 -1.6447 -2.5597
    1SOL    HW3 5879   0.223   3.870   2.529  1.5782  2.2263 -0.1716
    1SOL    MW4 5880   0.204   3.871   2.614  0.0436 -0.0117 -0.4652
    1SOL     OW 5881   4.473   4.012   2.732  0.2357 -0.5787 -0.3801
    1SOL    HW2 5882   4.475   4.102   2.700  0.9052 -0.6462 -0.5125
    1SOL    HW3 5883   4.546   3.968   2.689  0.9979 -0.7261  1.0384
    1SOL    MW4 5884   4.483   4.018   2.722  0.4239 -0.6065 -0.2105
    1SOL     OW 5885   0.004   4.260   2.627  0.0984  0.4956  0.0249
    1SOL    HW2 5886  -0.076   4.308   2.649  0.3255  0.8692  0.0393
    1SOL    HW3 5887   0.073   4.306   2.674  0.4674  0.8114 -0.8257
    1SOL    MW4 5888   0.002   4.273   2.636  0.1760  0.5865 -0.0856
    1SOL     OW 5889   0.193   4.428   2.768 -0.0705 -0.1440 -0.4699
    1SOL    HW2 5890   0.217   4.425   2.861  0.7049  2.2719 -0.5341
    1SOL    HW3 5891   0.263   4.381   2.723  0.1337 -0.3663  0.0793
    1SOL    MW4 5892   0.205   4.422   2.774  0.0587  0.1459 -0.4060
    1SOL     OW 5893   0.611   4.635   2.615 -0.2251 -0.0634  0.3180
    1SOL    HW2 5894   0.690   4.662   2.662 -0.1548  0.6920 -0.2152
    1SOL    HW3 5895   0.545   4.700   2.640 -0.4398 -0.1946  0.1002
    1SOL    MW4 5896   0.613   4.647   2.624 -0.2442  0.0181  0.2186
    1SOL     OW 5897   0.428   0.130   2.723 -0.1499  0.0667  0.2888
    1SOL    HW2 5898   0.439   0.116   2.817 -1.8675  0.1900  0.5301
    1SOL    HW3 5899   0.342   0.092   2.703 -0.3644  1.1882 -0.9850
    1SOL    MW4 5900   0.418   0.123   2.732 -0.4049  0.2309  0.1526
    1SOL     OW 5901   0.427   0.386   2.674 -0.2604 -0.2015  0.1862
    1SOL    HW2 5902   0.517   0.417   2.679 -0.4569  0.0701  2.4607
    1SOL    HW3 5903   0.431   0.295   2.701 -0.4527 -0.6822 -1.3423
    1SOL    MW4 5904   0.439   0.378   2.678 -0.3116 -0.2291  0.2844
    1SOL     OW 5905   0.667   0.526   2.710 -0.1537  0.4748  0.1097
    1SOL    HW2 5906   0.688   0.524   2.803  0.4390 -0.0640 -0.0311
    1SOL    HW3 5907   0.730   0.465   2.670 -1.0845 -0.1090 -0.4956
    1SOL    MW4 5908   0.678   0.517   2.717 -0.1983  0.3266  0.0112
    1SOL     OW 5909   0.679   0.819   2.605  0.0819 -0.1888 -0.2540
    1SOL    HW2 5910   0.752   0.859   2.652 -0.6351  0.1784  0.5676
    1SOL    HW3 5911   0.672   0.731   2.642 -0.6496  0.1900  0.5322
    1SOL    MW4 5912   0.688   0.813   2.616 -0.1092 -0.0903 -0.0417
    1SOL     OW 5913   0.455   0.951   2.719  0.0430  0.1369 -0.6271
    1SOL    HW2 5914   0.444   1.038   2.681 -0.8387 -0.5437 -1.9863
    1SOL    HW3 5915   0.547   0.930   2.703 -0.0581  0.2937 -1.4482
    1SOL    MW4 5916   0.466   0.960   2.712 -0.0867  0.0678 -0.9146
    1SOL     OW 5917   0.412   1.198   2.602  0.3030  0.4285 -0.2101
    1SOL    HW2 5918   0.495   1.230   2.635  0.4019  0.8255 -0.8330
    1SOL    HW3 5919   0.416   1.212   2.507 -0.9722  1.6485 -0.1097
    1SOL    MW4 5920   0.423   1.204   2.594  0.1478  0.6417 -0.2792
    1SOL     OW 5921   0.659   1.272   2.728 -0.4573 -0.1936 -0.1898
    1SOL    HW2 5922   0.647   1.276   2.823 -0.4270  2.3650 -0.2371
    1SOL    HW3 5923   0.748   1.239   2.716  0.1025  0.9421  0.7290
    1SOL    MW4 5924   0.669   1.269   2.739 -0.3794  0.2940 -0.0744
    1SOL     OW 5925   0.662   1.546   2.666  0.3439  0.3248  0.0294
    1SOL    HW2 5926   0.590   1.592   2.710  0.4982 -0.4620  1.1106
    1SOL    HW3 5927   0.662   1.459   2.704  1.5055  0.1329 -0.3968
    1SOL    MW4 5928   0.652   1.541   2.677  0.5175  0.1959  0.1159
    1SOL     OW 5929   0.447   1.698   2.743 -0.3136  0.1314 -0.3056
    1SOL    HW2 5930   0.462   1.711   2.837  0.7925  0.0538 -0.4673
    1SOL    HW3 5931   0.445   1.786   2.706  0.5244  0.1154 -0.3971
    1SOL    MW4 5932   0.449   1.711   2.751 -0.0571  0.1191 -0.3390
    1SOL     OW 5933   0.413   1.956   2.656 -0.1881  0.0423  0.1148
    1SOL    HW2 5934   0.500   1.995   2.662 -0.0102 -0.4039  0.4818
    1SOL    HW3 5935   0.405   1.929   2.564 -0.0658  0.3729  0.0073
    1SOL    MW4 5936   0.424   1.958   2.645 -0.1485  0.0271  0.1493
    1SOL     OW 5937   0.682   2.070   2.717 -0.3903 -0.3395  0.6833
    1SOL    HW2 5938   0.691   2.084   2.811 -1.1933 -1.1518  0.8846
    1SOL    HW3 5939   0.762   2.024   2.691  0.3338  0.8624  0.7663
    1SOL    MW4 5940   0.694   2.066   2.726 -0.4007 -0.2880  0.7207
    1SOL     OW 5941   0.671   2.335   2.643 -0.3999 -0.0045 -0.2081
    1SOL    HW2 5942   0.747   2.371   2.691  0.4737 -0.3650 -1.3049
    1SOL    HW3 5943   0.673   2.241   2.662 -0.4753 -0.0381 -0.3670
    1SOL    MW4 5944   0.682   2.327   2.652 -0.2946 -0.0565 -0.3738
    1SOL     OW 5945   0.432   2.435   2.737 -0.2980  0.2910 -0.2595
    1SOL    HW2 5946   0.420   2.510   2.679 -1.7958 -1.5159 -2.3208
    1SOL    HW3 5947   0.510   2.391   2.704 -0.0399  0.3152  0.3025
    1SOL    MW4 5948   0.441   2.439   2.725 -0.4615  0.0558 -0.4573
    1SOL     OW 5949   0.444   2.708   2.617  0.2958  0.1013  0.3654
    1SOL    HW2 5950   0.524   2.748   2.651  0.2727  1.8394 -1.5453
    1SOL    HW3 5951   0.374   2.766   2.646 -0.0239 -0.0270 -0.1547
    1SOL    MW4 5952   0.445   2.721   2.626  0.2506  0.3138  0.0446
    1SOL     OW 5953   0.679   2.839   2.734 -0.0476  0.1045 -0.1773
    1SOL    HW2 5954   0.690   2.847   2.829  3.1048  0.5911 -0.5438
    1SOL    HW3 5955   0.660   2.928   2.705  0.6036  0.2378 -0.1942
    1SOL    MW4 5956   0.678   2.852   2.743  0.4542  0.1864 -0.2282
    1SOL     OW 5957   0.673   3.110   2.647 -0.1921  0.3452  0.5430
    1SOL    HW2 5958   0.759   3.121   2.688 -0.0345 -1.2804  0.6899
    1SOL    HW3 5959   0.690   3.116   2.554  0.3195 -1.3497  0.5125
    1SOL    MW4 5960   0.687   3.112   2.640 -0.1038 -0.0932  0.5584
    1SOL     OW 5961   0.474   3.256   2.742  0.1746 -0.5619 -0.1336
    1SOL    HW2 5962   0.472   3.238   2.836  2.5140  0.4873  0.1551
    1SOL    HW3 5963   0.537   3.193   2.707 -0.6074 -0.8752 -1.0029
    1SOL    MW4 5964   0.482   3.245   2.750  0.3801 -0.4647 -0.2100
    1SOL     OW 5965   0.435   3.494   2.608  0.1550 -0.2729 -0.2432
    1SOL    HW2 5966   0.446   3.411   2.655 -1.9518 -0.6074 -0.2649
    1SOL    HW3 5967   0.440   3.469   2.516 -1.4087 -0.5575 -0.2699
    1SOL    MW4 5968   0.437   3.480   2.602 -0.3293 -0.3545 -0.2496
    1SOL     OW 5969   0.658   3.628   2.731 -0.0812 -0.0419  0.1491
    1SOL    HW2 5970   0.651   3.624   2.826  1.1611 -0.4705  0.2275
    1SOL    HW3 5971   0.580   3.582   2.700  0.2565 -1.2001  0.9736
    1SOL    MW4 5972   0.647   3.621   2.739  0.1273 -0.2515  0.2685
    1SOL     OW 5973   0.647   3.908   2.660 -0.4045  0.1838  0.0233
    1SOL    HW2 5974   0.569   3.948   2.696 -0.5605  0.2636 -0.4075
    1SOL    HW3 5975   0.645   3.818   2.693 -2.3600 -0.7674 -2.5823
    1SOL    MW4 5976   0.637   3.901   2.669 -0.6831  0.0689 -0.3777
    1SOL     OW 5977   0.418   4.033   2.740 -0.3017  0.2535 -0.2379
    1SOL    HW2 5978   0.412   4.122   2.706 -0.5481  0.3066 -0.0605
    1SOL    HW3 5979   0.345   3.987   2.700  0.2587 -0.0682 -0.9036
    1SOL    MW4 5980   0.408   4.039   2.731 -0.2603  0.2184 -0.3026
    1SOL     OW 5981   0.381   4.281   2.627 -0.4182  0.2790  0.2569
    1SOL    HW2 5982   0.467   4.310   2.658 -0.5581 -0.0083  0.9030
    1SOL    HW3 5983   0.395   4.263   2.534  0.2928 -0.0364  0.4195
    1SOL    MW4 5984   0.395   4.282   2.618 -0.3428  0.1993  0.3633
    1SOL     OW 5985   0.606   4.390   2.749 -0.2216  0.0908  0.0093
    1SOL    HW2 5986   0.684   4.341   2.724  0.6098  1.2551  0.2619
    1SOL    HW3 5987   0.608   4.468   2.694 -1.6133 -0.2140 -0.5084
    1SOL    MW4 5988   0.616   4.394   2.738 -0.2956  0.2041 -0.0255
    1SOL     OW 5989   1.118   4.606   2.646 -0.1436 -0.1377 -0.0309
    1SOL    HW2 5990   1.190   4.655   2.686 -1.5156 -0.2220  2.6100
    1SOL    HW3 5991   1.140   4.514   2.660  0.1588 -0.2046 -0.9152
    1SOL    MW4 5992   1.130   4.601   2.653 -0.2847 -0.1578  0.2010
    1SOL     OW 5993   0.844   0.105   2.719 -0.2099  0.1755  0.0883
    1SOL    HW2 5994   0.838   0.096   2.814  1.3328  1.3278  0.3164
    1SOL    HW3 5995   0.920   0.051   2.695 -1.2913 -1.0476 -0.6513
    1SOL    MW4 5996   0.854   0.096   2.729 -0.1491  0.1662  0.0207
    1SOL     OW 5997   0.872   0.350   2.614  0.2688 -0.2507  0.0460
    1SOL    HW2 5998   0.858   0.259   2.640  0.5389 -0.4599 -0.5370
    1SOL    HW3 5999   0.875   0.347   2.519  3.3560 -0.1016  0.0955
    1SOL    MW4 6000   0.871   0.337   2.605  0.7117 -0.2587 -0.0246
    1SOL     OW 6001   1.088   0.485   2.733 -0.1234  0.0841  0.1859
    1SOL    HW2 6002   1.090   0.569   2.688 -1.7274  0.7280  1.2481
    1SOL    HW3 6003   1.020   0.435   2.688  0.4490 -0.4315 -0.1000
    1SOL    MW4 6004   1.079   0.490   2.721 -0.2594  0.1010  0.2885
    1SOL     OW 6005   1.107   0.739   2.619 -0.6628  0.0391  0.6473
    1SOL    HW2 6006   1.182   0.779   2.664  0.6729 -0.9998 -0.6225
    1SOL    HW3 6007   1.125   0.752   2.526 -2.3074  0.1946  0.3301
    1SOL    MW4 6008   1.119   0.746   2.613 -0.7037 -0.0774  0.4377
    1SOL     OW 6009   0.914   0.901   2.732 -0.2029  0.0872 -0.0507
    1SOL    HW2 6010   0.924   0.889   2.827  0.6322 -1.8173 -0.3488
    1SOL    HW3 6011   0.984   0.847   2.694 -3.0467 -2.4778 -1.8646
    1SOL    MW4 6012   0.925   0.892   2.740 -0.4679 -0.5025 -0.3295
    1SOL     OW 6013   0.913   1.178   2.666  0.2762  0.5053 -0.1108
    1SOL    HW2 6014   0.930   1.085   2.682 -2.1000  0.0474 -0.0254
    1SOL    HW3 6015   0.902   1.184   2.571 -0.2323  0.5832 -0.0460
    1SOL    MW4 6016   0.914   1.166   2.656 -0.1044  0.4550 -0.0911
    1SOL     OW 6017   1.137   1.298   2.726 -0.9002  0.0334  0.0206
    1SOL    HW2 6018   1.143   1.387   2.693 -0.2587  0.6366  1.6629
    1SOL    HW3 6019   1.054   1.265   2.694 -1.2304  1.2969 -0.4444
    1SOL    MW4 6020   1.127   1.305   2.718 -0.8593  0.2797  0.1760
    1SOL     OW 6021   1.165   1.548   2.591 -0.3297  0.3259 -0.2765
    1SOL    HW2 6022   1.083   1.577   2.631 -0.4998 -0.7573  0.1834
    1SOL    HW3 6023   1.143   1.533   2.499 -0.0140  2.5278 -0.7505
    1SOL    MW4 6024   1.151   1.550   2.584 -0.3104  0.4735 -0.2782
    1SOL     OW 6025   0.909   1.672   2.688  0.5737  0.0177 -0.1381
    1SOL    HW2 6026   0.914   1.672   2.784  0.2131 -1.0467 -0.1054
    1SOL    HW3 6027   0.829   1.622   2.669 -0.2224  1.5984 -0.9662
    1SOL    MW4 6028   0.899   1.665   2.698  0.4210  0.0858 -0.2429
    1SOL     OW 6029   0.913   1.939   2.645  0.6992  0.0877 -0.7764
    1SOL    HW2 6030   0.993   1.966   2.691 -0.2992  0.4527  0.7830
    1SOL    HW3 6031   0.909   1.844   2.659  0.8967  0.0554 -0.9311
    1SOL    MW4 6032   0.923   1.930   2.653  0.5935  0.1315 -0.5910
    1SOL     OW 6033   1.140   2.080   2.731  0.1805 -0.3110  0.0043
    1SOL    HW2 6034   1.211   2.048   2.676 -1.4056 -2.1068 -1.0438
    1SOL    HW3 6035   1.111   2.160   2.688  1.3820  0.2904  0.2942
    1SOL    MW4 6036   1.146   2.086   2.718  0.1299 -0.4685 -0.0958
    1SOL     OW 6037   1.087   2.319   2.615 -0.3861  0.6342 -0.3789
    1SOL    HW2 6038   1.165   2.361   2.652 -0.9143  1.5796 -0.3287
    1SOL    HW3 6039   1.104   2.315   2.521 -0.0856  0.4198 -0.3182
    1SOL    MW4 6040   1.099   2.324   2.607 -0.4162  0.7305 -0.3643
    1SOL     OW 6041   0.905   2.458   2.774 -0.2387  0.0334 -0.4076
    1SOL    HW2 6042   0.899   2.535   2.718  1.3648  0.6001  0.1740
    1SOL    HW3 6043   0.959   2.396   2.725  0.4993  0.2258  0.1429
    1SOL    MW4 6044   0.911   2.460   2.760  0.0703  0.1335 -0.2582
    1SOL     OW 6045   0.867   2.675   2.615 -0.3611  0.4674 -0.5030
    1SOL    HW2 6046   0.944   2.718   2.652 -1.0638  0.7605  0.6402
    1SOL    HW3 6047   0.793   2.728   2.644 -1.2077 -1.2312  0.5513
    1SOL    MW4 6048   0.868   2.687   2.624 -0.5655  0.2818 -0.2131
    1SOL     OW 6049   1.083   2.832   2.707  0.0000  0.0000  0.2283
    1SOL    HW2 6050   1.106   2.825   2.800  0.0000  0.0000  0.2279
    1SOL    HW3 6051   1.159   2.795   2.661  0.0000  0.0000  0.2262
    1SOL    MW4 6052   1.096   2.826   2.713  0.0000  0.0000  0.2279
    1SOL     OW 6053   1.148   3.096   2.650  0.0000  0.0000 -0.7035
    1SOL    HW2 6054   1.122   3.007   2.672  0.0000  0.0000 -0.7041
    1SOL    HW3 6055   1.136   3.101   2.555  0.0000  0.0000 -0.7036
    1SOL    MW4 6056   1.143   3.085   2.640  0.0000  0.0000 -0.7036
    1SOL     OW 6057   0.919   3.208   2.760  0.0000  0.0000  0.4592
    1SOL    HW2 6058   0.903   3.287   2.708  0.0000  0.0000  0.4587
    1SOL    HW3 6059   1.006   3.179   2.733  0.0000  0.0000  0.4389
    1SOL    MW4 6060   0.928   3.215   2.750  0.0000  0.0000  0.4563
    1SOL     OW 6061   0.887   3.462   2.631  0.0000  0.0000 -0.0464
    1SOL    HW2 6062   0.961   3.509   2.672  0.0000  0.0000 -0.0205
    1SOL    HW3 6063   0.810   3.512   2.659  0.0000  0.0000 -0.0835
    1SOL    MW4 6064   0.887   3.475   2.641  0.0000  0.0000 -0.0477
    1SOL     OW 6065   1.102   3.599   2.751  0.0000  0.0000  0.1589
    1SOL    HW2 6066   1.101   3.626   2.843  0.0000  0.0000  0.1605
    1SOL    HW3 6067   1.100   3.681   2.703  0.0000  0.0000  0.1632
    1SOL    MW4 6068   1.102   3.613   2.757  0.0000  0.0000  0.1597
    1SOL     OW 6069   1.098   3.851   2.629  0.0000  0.0000  0.1064
    1SOL    HW2 6070   1.178   3.889   2.667  0.0000  0.0000  0.1020
    1SOL    HW3 6071   1.110   3.859   2.534  0.0000  0.0000  0.1058
    1SOL    MW4 6072   1.110   3.857   2.621  0.0000  0.0000  0.1059
    1SOL     OW 6073   0.893   4.008   2.756  0.0000  0.0000  0.1732
    1SOL    HW2 6074   0.957   3.963   2.701  0.0000  0.0000  0.1744
    1SOL    HW3 6075   0.809   3.969   2.730  0.0000  0.0000  0.1642
    1SOL    MW4 6076   0.890   3.997   2.745  0.0000  0.0000  0.1719
    1SOL     OW 6077   0.888   4.266   2.660  0.0000  0.0000 -0.2125
    1SOL    HW2 6078   0.892   4.173   2.685  0.0000  0.0000 -0.2224
    1SOL    HW3 6079   0.884   4.265   2.564  0.0000  0.0000 -0.2128
    1SOL    MW4 6080   0.888   4.254   2.651  0.0000  0.0000 -0.2136
    1SOL     OW 6081   1.144   4.351   2.739  0.0000  0.0000  0.1163
    1SOL    HW2 6082   1.137   4.378   2.830  0.0000  0.0000  0.1156
    1SOL    HW3 6083   1.055   4.327   2.713  0.0000  0.0000  0.1121
    1SOL    MW4 6084   1.131   4.351   2.747  0.0000  0.0000  0.1159
    1SOL     OW 6085   1.527   4.626   2.617 -0.3832 -0.4395 -0.0853
    1SOL    HW2 6086   1.529   4.534   2.644 -0.6561 -0.3155  0.3817
    1SOL    HW3 6087   1.529   4.624   2.522 -0.8572 -0.9487 -0.0883
    1SOL    MW4 6088   1.527   4.613   2.608 -0.4817 -0.4902 -0.0241
    1SOL     OW 6089   1.310   0.082   2.774 -0.3859 -0.0820 -0.5075
    1SOL    HW2 6090   1.298   0.173   2.746 -1.7276 -0.6915 -1.9442
    1SOL    HW3 6091   1.379   0.048   2.717  1.3586  0.5166  1.1889
    1SOL    MW4 6092   1.318   0.090   2.763 -0.3327 -0.0835 -0.4730
    1SOL     OW 6093   1.304   0.354   2.632  0.0268  0.3370 -0.1705
    1SOL    HW2 6094   1.386   0.395   2.657  0.2212 -1.8347  3.1445
    1SOL    HW3 6095   1.237   0.401   2.681 -0.4493  0.7192 -1.1879
    1SOL    MW4 6096   1.306   0.365   2.642 -0.0105  0.1009  0.1326
    1SOL     OW 6097   1.543   0.473   2.716  0.1158 -0.4414 -0.2672
    1SOL    HW2 6098   1.623   0.431   2.683 -0.7097 -1.7032 -0.7098
    1SOL    HW3 6099   1.554   0.566   2.697  1.7978 -0.5101  0.3254
    1SOL    MW4 6100   1.555   0.479   2.709  0.2286 -0.6170 -0.2472
    1SOL     OW 6101   1.565   0.729   2.651  0.5731  0.1552  0.4370
    1SOL    HW2 6102   1.486   0.778   2.676  0.8184  0.3968  0.7327
    1SOL    HW3 6103   1.573   0.744   2.557 -1.2728 -2.0749 -0.1255
    1SOL    MW4 6104   1.556   0.737   2.642  0.3619 -0.1072  0.4020
    1SOL     OW 6105   1.351   0.873   2.720  0.1817  0.2024  0.3027
    1SOL    HW2 6106   1.359   0.897   2.813  1.4498 -0.0378  0.2719
    1SOL    HW3 6107   1.339   0.956   2.675  1.0796  0.4623  0.5370
    1SOL    MW4 6108   1.351   0.887   2.726  0.4675  0.2050  0.3297
    1SOL     OW 6109   1.318   1.131   2.611 -0.2711  0.2760  0.2434
    1SOL    HW2 6110   1.402   1.163   2.642 -0.4480  0.8270  0.1514
    1SOL    HW3 6111   1.253   1.188   2.652 -0.6474 -0.7028  1.0139
    1SOL    MW4 6112   1.320   1.143   2.620 -0.3440  0.2196  0.3331
    1SOL     OW 6113   1.559   1.227   2.721 -0.0714  0.0166  0.3089
    1SOL    HW2 6114   1.555   1.243   2.815 -1.3415  1.9691 -0.0458
    1SOL    HW3 6115   1.644   1.186   2.707  0.1681 -0.2186  2.2841
    1SOL    MW4 6116   1.570   1.224   2.731 -0.2074  0.2432  0.5226
    1SOL     OW 6117   1.570   1.493   2.618 -0.0604 -0.6449 -0.3075
    1SOL    HW2 6118   1.550   1.406   2.653 -1.6232 -0.7587 -1.4210
    1SOL    HW3 6119   1.561   1.483   2.523  2.1205  0.1607 -0.6274
    1SOL    MW4 6120   1.566   1.480   2.610  0.0211 -0.5535 -0.4969
    1SOL     OW 6121   1.372   1.662   2.711  0.2611  0.3971 -0.0353
    1SOL    HW2 6122   1.450   1.616   2.680  0.1623 -0.0914  0.4313
    1SOL    HW3 6123   1.299   1.618   2.668  0.2628  1.1659 -0.8532
    1SOL    MW4 6124   1.373   1.650   2.701  0.2483  0.4343 -0.0815
    1SOL     OW 6125   1.344   1.942   2.594  0.4218  0.1037 -0.7763
    1SOL    HW2 6126   1.356   1.861   2.644 -0.4674  1.0538  1.0080
    1SOL    HW3 6127   1.359   1.916   2.503  0.7258 -1.9439 -0.1707
    1SOL    MW4 6128   1.348   1.928   2.588  0.3448 -0.0412 -0.4611
    1SOL     OW 6129   1.577   2.064   2.689  0.1592 -0.4306  0.3598
    1SOL    HW2 6130   1.644   2.002   2.660  0.5665 -0.0944  0.5820
    1SOL    HW3 6131   1.494   2.022   2.665  0.4624 -0.6011 -0.3990
    1SOL    MW4 6132   1.575   2.050   2.682  0.2530 -0.4089  0.2890
    1SOL     OW 6133   1.543   2.319   2.601 -0.3827  0.3078 -0.1870
    1SOL    HW2 6134   1.623   2.361   2.633 -1.4325  1.3840  1.0214
    1SOL    HW3 6135   1.553   2.227   2.627 -0.0357  0.6557  0.9054
    1SOL    MW4 6136   1.555   2.312   2.609 -0.4755  0.4957  0.1166
    1SOL     OW 6137   1.319   2.475   2.714  0.2456  0.1746  0.9525
    1SOL    HW2 6138   1.310   2.557   2.666 -1.0142 -0.7413 -0.4170
    1SOL    HW3 6139   1.399   2.435   2.680  1.4352  1.2851  2.3597
    1SOL    MW4 6140   1.328   2.481   2.703  0.2363  0.2003  0.9575
    1SOL     OW 6141   1.320   2.739   2.606 -0.5132  0.4494  0.1457
    1SOL    HW2 6142   1.399   2.785   2.637 -0.4406  0.3715  0.0770
    1SOL    HW3 6143   1.333   2.731   2.512 -0.9994  1.1988  0.0149
    1SOL    MW4 6144   1.332   2.744   2.598 -0.5677  0.5376  0.1192
    1SOL     OW 6145   1.553   2.851   2.692  0.6391 -0.0473 -0.1160
    1SOL    HW2 6146   1.560   2.863   2.786  0.2243  0.7192 -0.1767
    1SOL    HW3 6147   1.622   2.789   2.670  1.3554  0.5061  0.5526
    1SOL    MW4 6148   1.563   2.844   2.701  0.6790  0.1268 -0.0358
    1SOL     OW 6149   1.618   3.103   2.624 -0.0081  0.4799  0.6318
    1SOL    HW2 6150   1.702   3.123   2.665  0.4078 -0.2633  0.1458
    1SOL    HW3 6151   1.601   3.012   2.649  0.1135  0.1137 -0.6195
    1SOL    MW4 6152   1.627   3.093   2.633  0.0628  0.3338  0.4027
    1SOL     OW 6153   1.391   3.229   2.712  0.0908  0.4389  0.2114
    1SOL    HW2 6154   1.470   3.185   2.682  1.1053  2.2918  0.0327
    1SOL    HW3 6155   1.320   3.169   2.691  1.5862 -2.0123  1.8841
    1SOL    MW4 6156   1.392   3.216   2.706  0.4219  0.3605  0.4084
    1SOL     OW 6157   1.322   3.484   2.618  0.5822 -0.7092  0.5471
    1SOL    HW2 6158   1.342   3.395   2.648 -1.1336 -1.3142 -0.0551
    1SOL    HW3 6159   1.243   3.509   2.666 -0.2794 -0.4270 -0.9762
    1SOL    MW4 6160   1.314   3.475   2.628  0.2421 -0.7517  0.2666
    1SOL     OW 6161   1.573   3.611   2.731 -0.0151 -0.0280  0.7664
    1SOL    HW2 6162   1.640   3.564   2.681  1.1071  0.7122  1.5515
    1SOL    HW3 6163   1.491   3.571   2.704  0.4882  0.8196 -2.2162
    1SOL    MW4 6164   1.571   3.600   2.721  0.1994  0.1817  0.4761
    1SOL     OW 6165   1.566   3.862   2.634  0.0278  0.0338  0.1836
    1SOL    HW2 6166   1.486   3.896   2.676  1.0546 -0.1948  2.4042
    1SOL    HW3 6167   1.570   3.771   2.662  0.5809 -0.2135 -0.6877
    1SOL    MW4 6168   1.556   3.855   2.643  0.2364 -0.0286  0.3614
    1SOL     OW 6169   1.335   3.954   2.745  0.0681  0.3547  0.1643
    1SOL    HW2 6170   1.342   3.966   2.839 -0.9879  1.5776  0.1043
    1SOL    HW3 6171   1.322   4.042   2.710 -2.3381 -0.3480 -0.8523
    1SOL    MW4 6172   1.334   3.967   2.753 -0.3887  0.4234  0.0222
    1SOL     OW 6173   1.322   4.197   2.623  0.0918 -0.2413  0.0457
    1SOL    HW2 6174   1.267   4.256   2.674  0.5663 -0.0614  0.3520
    1SOL    HW3 6175   1.318   4.231   2.534  0.5008  0.3517  0.2541
    1SOL    MW4 6176   1.314   4.209   2.618  0.2084 -0.1392  0.1137
    1SOL     OW 6177   1.531   4.360   2.732 -0.1767 -0.1409  0.0660
    1SOL    HW2 6178   1.509   4.340   2.822 -1.1318 -1.1712 -0.3880
    1SOL    HW3 6179   1.472   4.306   2.680  0.6781  0.0959 -1.1773
    1SOL    MW4 6180   1.521   4.350   2.737 -0.1899 -0.2456 -0.1578
    1SOL     OW 6181   1.971   4.650   2.613  0.0180  0.4822  0.0444
    1SOL    HW2 6182   2.047   4.693   2.652  1.2993 -1.0703 -0.6976
    1SOL    HW3 6183   1.993   4.643   2.520 -0.8741 -0.3010 -0.1149
    1SOL    MW4 6184   1.984   4.655   2.606  0.0694  0.1740 -0.0741
    1SOL     OW 6185   1.743   0.047   2.756  0.7825  0.2474  0.7967
    1SOL    HW2 6186   1.802  -0.005   2.702  1.3355  0.2123  1.4304
    1SOL    HW3 6187   1.655   0.021   2.728  1.0621 -0.5303  0.6381
    1SOL    MW4 6188   1.739   0.037   2.745  0.8924  0.1401  0.8593
    1SOL     OW 6189   1.781   0.325   2.659  0.0019  0.1537  0.0238
    1SOL    HW2 6190   1.868   0.355   2.685 -0.0790 -1.0791  1.7449
    1SOL    HW3 6191   1.780   0.231   2.680 -1.2996 -0.1241 -1.1710
    1SOL    MW4 6192   1.792   0.316   2.665 -0.1805 -0.0456  0.0932
    1SOL     OW 6193   2.019   0.454   2.738 -0.5084 -0.1177 -0.4570
    1SOL    HW2 6194   2.107   0.423   2.716  0.3092  1.4220  0.5872
    1SOL    HW3 6195   2.019   0.546   2.712 -1.7140 -0.0303 -0.1569
    1SOL    MW4 6196   2.031   0.462   2.731 -0.5593  0.0969 -0.2799
    1SOL     OW 6197   2.022   0.709   2.649  0.4264  0.1377  0.0038
    1SOL    HW2 6198   1.948   0.756   2.688  1.2960  0.9771  0.6788
    1SOL    HW3 6199   2.011   0.721   2.555 -0.0090  0.6907  0.1226
    1SOL    MW4 6200   2.011   0.717   2.642  0.4838  0.3214  0.1087
    1SOL     OW 6201   1.806   0.854   2.744  0.3398  0.2049  0.3186
    1SOL    HW2 6202   1.800   0.945   2.716 -0.2647 -0.0914 -0.5391
    1SOL    HW3 6203   1.730   0.811   2.704  0.4976 -0.6271  0.8922
    1SOL    MW4 6204   1.795   0.860   2.735  0.2809  0.0561  0.2811
    1SOL     OW 6205   1.792   1.116   2.661 -0.4572  0.1153  0.1550
    1SOL    HW2 6206   1.870   1.165   2.688 -0.1381  0.2306 -0.9507
    1SOL    HW3 6207   1.787   1.129   2.566 -1.6399 -0.1627  0.1681
    1SOL    MW4 6208   1.802   1.125   2.652 -0.5710  0.0938  0.0110
    1SOL     OW 6209   2.023   1.258   2.728 -0.0664  0.2384  0.0648
    1SOL    HW2 6210   2.012   1.256   2.823 -1.1091 -0.9164 -0.0739
    1SOL    HW3 6211   2.091   1.193   2.711 -1.6861 -1.4007 -0.2088
    1SOL    MW4 6212   2.031   1.249   2.738 -0.4177 -0.1302  0.0103
    1SOL     OW 6213   2.067   1.515   2.635 -0.0301  0.0134 -0.2374
    1SOL    HW2 6214   1.988   1.566   2.653 -0.6126 -0.9248 -0.1251
    1SOL    HW3 6215   2.045   1.426   2.664  0.9968 -0.2904 -0.3874
    1SOL    MW4 6216   2.054   1.510   2.641  0.0284 -0.1504 -0.2425
    1SOL     OW 6217   1.822   1.631   2.711  0.0683 -0.0593 -0.0835
    1SOL    HW2 6218   1.821   1.645   2.805 -0.9593 -1.0422  0.0643
    1SOL    HW3 6219   1.737   1.591   2.692 -0.5020  1.8428 -1.6883
    1SOL    MW4 6220   1.811   1.628   2.721 -0.1426  0.0619 -0.2761
    1SOL     OW 6221   1.798   1.898   2.633 -0.2951  0.2614  0.0257
    1SOL    HW2 6222   1.879   1.934   2.670 -1.7510  1.5320  2.0345
    1SOL    HW3 6223   1.807   1.803   2.643  0.7001  0.4298  0.7550
    1SOL    MW4 6224   1.810   1.890   2.639 -0.3557  0.4512  0.3867
    1SOL     OW 6225   2.037   2.036   2.717 -0.1002  0.7473 -0.2274
    1SOL    HW2 6226   2.063   2.040   2.809 -0.8065  0.7764 -0.0183
    1SOL    HW3 6227   2.034   2.128   2.689  0.1842  0.7341 -0.2961
    1SOL    MW4 6228   2.040   2.049   2.726 -0.1557  0.7493 -0.2086
    1SOL     OW 6229   2.017   2.285   2.592  0.1183  0.4115 -0.1517
    1SOL    HW2 6230   2.076   2.353   2.626 -0.4377  0.9334 -0.2128
    1SOL    HW3 6231   2.009   2.306   2.499  0.5010 -0.1558 -0.3109
    1SOL    MW4 6232   2.024   2.297   2.584  0.0958  0.4055 -0.1807
    1SOL     OW 6233   1.804   2.421   2.678 -0.1203 -0.3004  0.3460
    1SOL    HW2 6234   1.798   2.406   2.773  0.6871  1.3834  0.6672
    1SOL    HW3 6235   1.876   2.364   2.650  0.4075  0.0700  0.9349
    1SOL    MW4 6236   1.812   2.411   2.687  0.0558 -0.0296  0.4663
    1SOL     OW 6237   1.759   2.683   2.616  0.4102 -0.0423  0.4456
    1SOL    HW2 6238   1.777   2.594   2.646  0.3980 -0.3616 -0.4738
    1SOL    HW3 6239   1.763   2.677   2.521 -5.7195 -0.4981 -0.0385
    1SOL    MW4 6240   1.762   2.670   2.607 -0.4002 -0.1447  0.2601
    1SOL     OW 6241   2.004   2.853   2.728  0.4849 -0.1627  0.4919
    1SOL    HW2 6242   2.067   2.801   2.678 -0.8584 -0.6238 -0.7517
    1SOL    HW3 6243   1.919   2.816   2.705 -0.1850 -0.1171  2.8357
    1SOL    MW4 6244   2.001   2.842   2.718  0.2191 -0.2174  0.6371
    1SOL     OW 6245   2.043   3.111   2.632  1.0290  0.1845  0.4972
    1SOL    HW2 6246   2.013   3.021   2.641 -1.9737  1.1496  0.7832
    1SOL    HW3 6247   2.068   3.119   2.539 -1.9319 -0.0470 -0.3747
    1SOL    MW4 6248   2.042   3.101   2.621  0.2425  0.2813  0.4199
    1SOL     OW 6249   1.822   3.228   2.743  0.1469  0.0819 -0.2888
    1SOL    HW2 6250   1.807   3.313   2.701  2.3329  0.7351  0.2068
    1SOL    HW3 6251   1.903   3.196   2.703  0.5992 -0.6850  1.2228
    1SOL    MW4 6252   1.831   3.235   2.732  0.4948  0.0670 -0.0241
    1SOL     OW 6253   1.785   3.473   2.600  0.5294 -0.4946 -0.7172
    1SOL    HW2 6254   1.852   3.525   2.644 -0.1005  0.3070 -0.6767
    1SOL    HW3 6255   1.806   3.479   2.507 -0.0125  0.5500 -0.7883
    1SOL    MW4 6256   1.796   3.481   2.594  0.3749 -0.2508 -0.7215
    1SOL     OW 6257   1.997   3.597   2.726 -0.1140 -0.0035 -0.0084
    1SOL    HW2 6258   2.017   3.621   2.816 -0.9781 -0.0103  0.1926
    1SOL    HW3 6259   2.076   3.555   2.694  0.0594 -0.3665  0.8816
    1SOL    MW4 6260   2.010   3.594   2.733 -0.2050 -0.0520  0.1354
    1SOL     OW 6261   2.005   3.857   2.570 -0.5985  0.2197 -0.7860
    1SOL    HW2 6262   1.938   3.892   2.629  0.6302  1.8400 -0.2991
    1SOL    HW3 6263   2.002   3.762   2.584 -1.7514  0.4019  0.3515
    1SOL    MW4 6264   1.996   3.849   2.580 -0.5884  0.4575 -0.5715
    1SOL     OW 6265   1.797   3.968   2.730 -0.0280 -0.4312  0.0983
    1SOL    HW2 6266   1.791   4.058   2.698  0.1772 -1.1054 -1.8732
    1SOL    HW3 6267   1.715   3.927   2.704  0.0484 -0.9312  0.6335
    1SOL    MW4 6268   1.785   3.975   2.722  0.0091 -0.5860 -0.0911
    1SOL     OW 6269   1.763   4.245   2.624  0.4436 -0.2308  0.2484
    1SOL    HW2 6270   1.685   4.284   2.664  0.7232 -0.4819  1.0452
    1SOL    HW3 6271   1.741   4.238   2.531 -0.0264  0.8055  0.2719
    1SOL    MW4 6272   1.750   4.249   2.617  0.4185 -0.1268  0.3564
    1SOL     OW 6273   1.998   4.387   2.704 -0.2756 -0.1624  0.0372
    1SOL    HW2 6274   1.921   4.337   2.676 -0.0612 -0.5970  0.2195
    1SOL    HW3 6275   1.976   4.478   2.685 -0.4178 -0.3882 -0.8822
    1SOL    MW4 6276   1.985   4.392   2.698 -0.2660 -0.2499 -0.0601
    1SOL     OW 6277   2.440   4.625   2.607 -0.1067 -0.3403 -0.1712
    1SOL    HW2 6278   2.495   4.679   2.664 -0.2527  0.3402 -0.6719
    1SOL    HW3 6279   2.478   4.637   2.519 -0.5776 -0.4805 -0.3928
    1SOL    MW4 6280   2.452   4.634   2.603 -0.1884 -0.2694 -0.2666
    1SOL     OW 6281   2.188   0.086   2.708  0.6532  0.1293  0.1631
    1SOL    HW2 6282   2.218   0.102   2.797  0.0639 -1.1191  0.5829
    1SOL    HW3 6283   2.260   0.038   2.667  0.1328 -0.9919  0.5433
    1SOL    MW4 6284   2.202   0.082   2.714  0.5069 -0.1833  0.2685
    1SOL     OW 6285   2.241   0.342   2.654 -0.3665  0.3095  0.6015
    1SOL    HW2 6286   2.211   0.254   2.677  1.5101 -0.1728  1.2700
    1SOL    HW3 6287   2.228   0.348   2.559  0.4885 -1.0856  0.3809
    1SOL    MW4 6288   2.235   0.331   2.645 -0.0060  0.0618  0.6607
    1SOL     OW 6289   2.491   0.460   2.725 -0.1334  0.0724  0.2629
    1SOL    HW2 6290   2.475   0.553   2.707  0.2486 -0.4454 -3.2081
    1SOL    HW3 6291   2.410   0.416   2.698  0.8155 -0.8595 -1.1999
    1SOL    MW4 6292   2.479   0.467   2.719  0.0422 -0.1189 -0.3879
    1SOL     OW 6293   2.460   0.723   2.639 -0.2823 -0.2153 -0.0674
    1SOL    HW2 6294   2.385   0.772   2.673 -1.3787 -1.3326 -0.8166
    1SOL    HW3 6295   2.440   0.711   2.546  0.8830 -0.4427 -0.2980
    1SOL    MW4 6296   2.448   0.728   2.631 -0.2732 -0.3927 -0.1967
    1SOL     OW 6297   2.239   0.876   2.718 -0.7904  0.2809 -0.2268
    1SOL    HW2 6298   2.251   0.884   2.813 -0.5639  0.1223 -0.2424
    1SOL    HW3 6299   2.169   0.811   2.708 -0.5055 -0.0313 -0.1815
    1SOL    MW4 6300   2.231   0.869   2.729 -0.7234  0.2188 -0.2232
    1SOL     OW 6301   2.254   1.123   2.601 -0.3170  0.1830  0.2052
    1SOL    HW2 6302   2.246   1.035   2.638 -2.1256  0.5303  0.7110
    1SOL    HW3 6303   2.247   1.110   2.506 -0.9908 -0.1778  0.3032
    1SOL    MW4 6304   2.252   1.109   2.593 -0.6444  0.1812  0.2849
    1SOL     OW 6305   2.485   1.283   2.709 -0.1526  0.1252  0.2451
    1SOL    HW2 6306   2.556   1.231   2.673 -0.6277 -1.0440  0.9755
    1SOL    HW3 6307   2.405   1.239   2.680 -0.5815  1.3205 -0.4136
    1SOL    MW4 6308   2.484   1.270   2.701 -0.2720  0.1286  0.2544
    1SOL     OW 6309   2.494   1.543   2.614  0.7619  0.0354 -0.5659
    1SOL    HW2 6310   2.422   1.578   2.666  0.8392 -0.7673  0.0879
    1SOL    HW3 6311   2.498   1.450   2.636  2.9783  0.3593  0.5959
    1SOL    MW4 6312   2.485   1.536   2.623  1.0648 -0.0277 -0.3264
    1SOL     OW 6313   2.276   1.652   2.755  0.0886  0.2276 -0.4950
    1SOL    HW2 6314   2.263   1.737   2.713  0.0112 -0.1484 -1.2462
    1SOL    HW3 6315   2.202   1.599   2.727 -0.1398  0.0676  0.3930
    1SOL    MW4 6316   2.265   1.656   2.746  0.0484  0.1569 -0.4768
    1SOL     OW 6317   2.259   1.888   2.603 -0.3022  0.2897 -0.0428
    1SOL    HW2 6318   2.179   1.933   2.629 -1.1087 -0.0869 -1.8022
    1SOL    HW3 6319   2.268   1.906   2.509  0.7067 -1.1352 -0.2486
    1SOL    MW4 6320   2.249   1.896   2.594 -0.2754  0.0520 -0.3023
    1SOL     OW 6321   2.482   2.050   2.686  0.4126  0.9748 -1.0754
    1SOL    HW2 6322   2.460   2.132   2.643  2.6288  1.2260 -1.7474
    1SOL    HW3 6323   2.415   1.988   2.655 -0.4343  2.1673 -1.6472
    1SOL    MW4 6324   2.470   2.053   2.677  0.5932  1.1654 -1.2395
    1SOL     OW 6325   2.427   2.314   2.619 -0.1861 -0.2634  0.4368
    1SOL    HW2 6326   2.514   2.344   2.642  0.2007 -0.4553 -0.7408
    1SOL    HW3 6327   2.423   2.321   2.524 -1.2555 -0.7846  0.4288
    1SOL    MW4 6328   2.438   2.319   2.609 -0.2763 -0.3579  0.2806
    1SOL     OW 6329   2.199   2.447   2.714  0.1211  0.3541  0.3143
    1SOL    HW2 6330   2.221   2.466   2.805  0.9277  0.0126  0.1980
    1SOL    HW3 6331   2.278   2.406   2.679 -0.1712  0.5301 -0.5516
    1SOL    MW4 6332   2.212   2.444   2.722  0.1888  0.3321  0.1848
    1SOL     OW 6333   2.219   2.719   2.630  0.3151  0.0683 -0.3068
    1SOL    HW2 6334   2.293   2.753   2.679  0.4484  0.9186 -1.0938
    1SOL    HW3 6335   2.198   2.635   2.673  0.3285  0.8613  1.2883
    1SOL    MW4 6336   2.226   2.712   2.642  0.3345  0.2851 -0.2005
    1SOL     OW 6337   2.450   2.848   2.752  0.0052 -0.6575  0.2686
    1SOL    HW2 6338   2.521   2.807   2.702 -1.6889 -0.8339 -2.0759
    1SOL    HW3 6339   2.446   2.938   2.719  0.5500  0.0220  1.9752
    1SOL    MW4 6340   2.459   2.854   2.741 -0.1466 -0.5913  0.1843
    1SOL     OW 6341   2.449   3.094   2.634  0.0037  0.2381 -0.0496
    1SOL    HW2 6342   2.382   3.156   2.663  0.9960  1.3075  0.0223
    1SOL    HW3 6343   2.437   3.087   2.540 -1.1168 -0.6877  0.1541
    1SOL    MW4 6344   2.439   3.101   2.626 -0.0131  0.2570 -0.0134
    1SOL     OW 6345   2.269   3.260   2.740  0.1717  0.0938 -0.1291
    1SOL    HW2 6346   2.279   3.254   2.836  0.7828 -1.8833 -0.2886
    1SOL    HW3 6347   2.180   3.229   2.723  0.8541 -1.7838 -0.3742
    1SOL    MW4 6348   2.259   3.255   2.751  0.3424 -0.4146 -0.1826
    1SOL     OW 6349   2.232   3.490   2.601 -0.3378  0.4456 -0.3472
    1SOL    HW2 6350   2.307   3.542   2.629 -0.6504  0.5559  0.3028
    1SOL    HW3 6351   2.242   3.407   2.648 -0.0996  0.0966 -1.0097
    1SOL    MW4 6352   2.243   3.486   2.611 -0.3476  0.4141 -0.3490
    1SOL     OW 6353   2.456   3.612   2.691  0.5414 -0.2701  0.4076
    1SOL    HW2 6354   2.475   3.611   2.785  0.3998  0.0838  0.4407
    1SOL    HW3 6355   2.448   3.705   2.670 -0.2807 -0.3811  0.2168
    1SOL    MW4 6356   2.458   3.624   2.701  0.4144 -0.2379  0.3867
    1SOL     OW 6357   2.449   3.885   2.601 -0.0058  0.3345  0.2880
    1SOL    HW2 6358   2.512   3.931   2.657 -0.2875  1.3206 -0.1939
    1SOL    HW3 6359   2.363   3.907   2.638 -0.2731  2.0354 -1.2583
    1SOL    MW4 6360   2.446   3.894   2.614 -0.0782  0.6890  0.0203
    1SOL     OW 6361   2.220   3.963   2.729  0.2027 -0.3794 -0.3014
    1SOL    HW2 6362   2.209   3.943   2.822 -1.1598  1.6390  0.0023
    1SOL    HW3 6363   2.145   3.921   2.687  0.0984 -0.1667 -0.3260
    1SOL    MW4 6364   2.209   3.955   2.736  0.0093 -0.0851 -0.2644
    1SOL     OW 6365   2.208   4.236   2.615 -0.1001 -0.2915 -0.1417
    1SOL    HW2 6366   2.210   4.148   2.654  0.8400 -0.2069 -0.0020
    1SOL    HW3 6367   2.129   4.276   2.652 -0.3638 -0.9688  0.0363
    1SOL    MW4 6368   2.198   4.230   2.625 -0.0110 -0.3700 -0.0999
    1SOL     OW 6369   2.419   4.394   2.739  0.2262 -0.5862 -0.0837
    1SOL    HW2 6370   2.342   4.347   2.707 -0.3417 -0.1102  0.5743
    1SOL    HW3 6371   2.421   4.475   2.687 -1.4300  0.7827  1.9350
    1SOL    MW4 6372   2.409   4.398   2.728 -0.0670 -0.3428  0.2694
    1SOL     OW 6373   2.881   4.588   2.647  0.1344 -0.1125 -0.7131
    1SOL    HW2 6374   2.945   4.651   2.680  2.2187 -2.0727 -0.9004
    1SOL    HW3 6375   2.887   4.596   2.552  0.9490 -1.1127 -0.7499
    1SOL    MW4 6376   2.890   4.598   2.639  0.5167 -0.5026 -0.7424
    1SOL     OW 6377   2.669   0.105   2.694  0.3333 -0.1219  0.2789
    1SOL    HW2 6378   2.691   0.120   2.786 -0.4803 -0.5130  0.5411
    1SOL    HW3 6379   2.735   0.042   2.664  0.4407 -0.2000  0.6722
    1SOL    MW4 6380   2.680   0.099   2.702  0.2403 -0.1838  0.3655
    1SOL     OW 6381   2.705   0.359   2.575  0.4448 -0.0152 -0.0676
    1SOL    HW2 6382   2.710   0.275   2.621 -0.3645 -0.6585 -1.1108
    1SOL    HW3 6383   2.632   0.405   2.617  0.8668  0.1598  0.4832
    1SOL    MW4 6384   2.696   0.354   2.587  0.3934 -0.0770 -0.1323
    1SOL     OW 6385   2.909   0.513   2.682  0.5673  0.1006  0.1147
    1SOL    HW2 6386   2.894   0.601   2.649  0.1791 -0.3693 -0.9825
    1SOL    HW3 6387   2.829   0.465   2.661  0.8785 -0.5767  0.4643
    1SOL    MW4 6388   2.897   0.518   2.675  0.5572 -0.0508  0.0162
    1SOL     OW 6389   2.899   0.794   2.583  0.0855 -0.1322 -0.0377
    1SOL    HW2 6390   2.971   0.828   2.637 -0.3097 -0.9204  1.0115
    1SOL    HW3 6391   2.820   0.822   2.630 -0.2514 -1.4417  0.1806
    1SOL    MW4 6392   2.898   0.802   2.597 -0.0110 -0.4089  0.1297
    1SOL     OW 6393   2.678   0.878   2.706 -0.3542 -0.5432  0.0971
    1SOL    HW2 6394   2.663   0.872   2.800 -1.1634 -0.0037  0.0113
    1SOL    HW3 6395   2.597   0.845   2.667 -0.1433 -0.4697 -0.4042
    1SOL    MW4 6396   2.665   0.873   2.713 -0.4334 -0.4624  0.0193
    1SOL     OW 6397   2.704   1.159   2.612 -0.3056  0.2310 -0.2848
    1SOL    HW2 6398   2.776   1.189   2.667  0.4521 -0.0964 -1.0981
    1SOL    HW3 6399   2.690   1.068   2.637 -0.8564  0.4722  0.3102
    1SOL    MW4 6400   2.712   1.151   2.623 -0.2782  0.2197 -0.3138
    1SOL     OW 6401   2.924   1.258   2.744 -0.4449 -0.3196  0.0973
    1SOL    HW2 6402   2.931   1.250   2.839  3.6184 -0.1205 -0.0675
    1SOL    HW3 6403   2.988   1.195   2.710 -0.7220  0.7025 -2.4670
    1SOL    MW4 6404   2.934   1.249   2.752  0.0544 -0.1584 -0.2630
    1SOL     OW 6405   2.918   1.529   2.624 -0.1332 -0.0121 -0.0065
    1SOL    HW2 6406   2.847   1.569   2.674 -0.7670 -0.8013 -0.2472
    1SOL    HW3 6407   2.915   1.437   2.649  0.2260 -0.2125 -0.6939
    1SOL    MW4 6408   2.908   1.522   2.634 -0.1695 -0.1425 -0.1290
    1SOL     OW 6409   2.707   1.685   2.753 -0.2156 -0.0724 -0.1535
    1SOL    HW2 6410   2.694   1.679   2.848 -0.8584  0.2579 -0.2127
    1SOL    HW3 6411   2.637   1.631   2.716 -0.0245 -0.1225 -0.4387
    1SOL    MW4 6412   2.696   1.677   2.761 -0.2749 -0.0354 -0.1988
    1SOL     OW 6413   2.717   1.908   2.592 -0.1067  0.0872 -0.2863
    1SOL    HW2 6414   2.726   1.826   2.640 -0.2864  0.3488  0.2033
    1SOL    HW3 6415   2.639   1.949   2.630  0.6915  1.0586  0.3281
    1SOL    MW4 6416   2.708   1.903   2.603 -0.0250  0.2497 -0.1407
    1SOL     OW 6417   2.922   2.068   2.693  0.3195 -0.1632  0.5259
    1SOL    HW2 6418   2.903   2.149   2.646  0.8827 -1.6336 -2.3360
    1SOL    HW3 6419   2.855   2.006   2.663  0.9856 -1.2964  1.3203
    1SOL    MW4 6420   2.911   2.070   2.683  0.4816 -0.5066  0.2530
    1SOL     OW 6421   2.899   2.322   2.578 -0.3183 -0.6942  0.5693
    1SOL    HW2 6422   2.973   2.374   2.609 -0.9072  1.5017 -1.5434
    1SOL    HW3 6423   2.822   2.369   2.610 -0.8603 -0.3777 -1.1972
    1SOL    MW4 6424   2.898   2.335   2.587 -0.4675 -0.3626  0.0572
    1SOL     OW 6425   2.656   2.454   2.673  0.7429 -0.2203 -0.6326
    1SOL    HW2 6426   2.659   2.439   2.768  0.4405 -1.4388 -0.8048
    1SOL    HW3 6427   2.665   2.549   2.664  0.2269 -0.0288  0.6483
    1SOL    MW4 6428   2.657   2.465   2.685  0.6349 -0.3557 -0.4864
    1SOL     OW 6429   2.661   2.735   2.619  0.1104  0.6764 -0.5824
    1SOL    HW2 6430   2.744   2.775   2.643  0.4359  0.2267 -0.9408
    1SOL    HW3 6431   2.665   2.727   2.524  0.4804 -1.1213 -0.4354
    1SOL    MW4 6432   2.673   2.739   2.610  0.2019  0.3798 -0.6104
    1SOL     OW 6433   2.910   2.824   2.700  0.2177  0.7608  0.5369
    1SOL    HW2 6434   2.913   2.834   2.796 -1.5295  1.2730  0.5508
    1SOL    HW3 6435   2.928   2.911   2.667 -1.3150  1.0480  0.4397
    1SOL    MW4 6436   2.913   2.837   2.708 -0.2151  0.8659  0.5255
    1SOL     OW 6437   2.931   3.084   2.608 -0.1780  0.3788  0.1412
    1SOL    HW2 6438   2.848   3.103   2.652 -0.7652 -1.7628 -0.0197
    1SOL    HW3 6439   2.909   3.076   2.516  0.5444  1.6361 -0.1659
    1SOL    MW4 6440   2.917   3.086   2.602 -0.1602  0.2623  0.0794
    1SOL     OW 6441   2.690   3.213   2.700 -0.2537 -0.2590  0.1375
    1SOL    HW2 6442   2.699   3.306   2.677 -0.9567 -0.4226 -0.8203
    1SOL    HW3 6443   2.604   3.188   2.667 -0.3583 -1.0831  1.0028
    1SOL    MW4 6444   2.680   3.222   2.692 -0.3603 -0.3893  0.1254
    1SOL     OW 6445   2.694   3.484   2.621 -0.1160 -0.0168 -0.0939
    1SOL    HW2 6446   2.615   3.530   2.650 -0.2863 -0.7289  0.5889
    1SOL    HW3 6447   2.681   3.470   2.527 -0.6312  0.1937 -0.0556
    1SOL    MW4 6448   2.682   3.488   2.613 -0.2065 -0.0832  0.0014
    1SOL     OW 6449   2.902   3.658   2.696 -0.0964 -0.3213  0.5168
    1SOL    HW2 6450   2.912   3.671   2.790 -0.9481  1.0850  0.4397
    1SOL    HW3 6451   2.822   3.607   2.687  0.3334 -1.0111  0.5787
    1SOL    MW4 6452   2.893   3.653   2.707 -0.1521 -0.2267  0.5147
    1SOL     OW 6453   2.891   3.929   2.646 -0.1883 -0.2188 -0.1989
    1SOL    HW2 6454   2.969   3.972   2.682 -1.2048  1.0132  0.5813
    1SOL    HW3 6455   2.909   3.835   2.655  1.2545  0.0387 -0.1731
    1SOL    MW4 6456   2.904   3.922   2.652 -0.1321 -0.0224 -0.0925
    1SOL     OW 6457   2.650   3.985   2.778 -0.2280 -0.1818  0.5499
    1SOL    HW2 6458   2.645   4.072   2.737  0.7134  0.0107  0.8363
    1SOL    HW3 6459   2.723   3.942   2.734 -1.1496 -1.1106 -0.1004
    1SOL    MW4 6460   2.659   3.991   2.767 -0.2255 -0.2787  0.5016
    1SOL     OW 6461   2.632   4.246   2.644  0.4431 -0.0274  0.3874
    1SOL    HW2 6462   2.713   4.273   2.685 -0.5554  1.3492  1.4862
    1SOL    HW3 6463   2.568   4.313   2.669 -0.5771  0.0064 -2.0748
    1SOL    MW4 6464   2.634   4.259   2.653  0.1767  0.1583  0.2074
    1SOL     OW 6465   2.877   4.330   2.741 -0.1871 -0.3705  0.3341
    1SOL    HW2 6466   2.891   4.352   2.833 -1.3277 -0.4816  0.5402
    1SOL    HW3 6467   2.878   4.415   2.696  0.5569 -0.3300  0.4133
    1SOL    MW4 6468   2.879   4.344   2.747 -0.2396 -0.3800  0.3717
    1SOL     OW 6469   3.319   0.012   2.642 -0.0965 -0.5918 -0.2073
    1SOL    HW2 6470   3.334  -0.081   2.657  0.6294 -0.6434 -1.2384
    1SOL    HW3 6471   3.225   0.024   2.659 -0.0305 -1.3395  0.7411
    1SOL    MW4 6472   3.308   0.001   2.646  0.0076 -0.6967 -0.2186
    1SOL     OW 6473   3.054   0.130   2.705 -0.2309  0.1738 -0.1564
    1SOL    HW2 6474   3.076   0.138   2.798 -1.8250  0.5600  0.1968
    1SOL    HW3 6475   3.080   0.213   2.667  1.1097 -0.2547 -0.2142
    1SOL    MW4 6476   3.060   0.142   2.712 -0.2644  0.1682 -0.1175
    1SOL     OW 6477   3.130   0.374   2.613 -0.4096  0.5537 -0.0683
    1SOL    HW2 6478   3.050   0.419   2.641 -0.9998 -0.6281  0.1787
    1SOL    HW3 6479   3.128   0.378   2.518 -2.0318 -1.5977 -0.1604
    1SOL    MW4 6480   3.119   0.380   2.604 -0.7017  0.1139 -0.0479
    1SOL     OW 6481   3.345   0.504   2.699  0.5748  0.0040  0.0182
    1SOL    HW2 6482   3.339   0.599   2.689 -0.5678 -0.1240 -0.6667
    1SOL    HW3 6483   3.261   0.472   2.665  0.5118 -1.1663  1.2710
    1SOL    MW4 6484   3.333   0.512   2.693  0.4156 -0.1673  0.0930
    1SOL     OW 6485   3.338   0.787   2.660 -0.0066  0.0573  0.0394
    1SOL    HW2 6486   3.415   0.839   2.685 -0.6071  0.9042  0.1552
    1SOL    HW3 6487   3.329   0.801   2.566 -0.1602  0.1573  0.0687
    1SOL    MW4 6488   3.347   0.796   2.651 -0.1061  0.1823  0.0587
    1SOL     OW 6489   3.105   0.886   2.756  0.0263  0.0109  0.0118
    1SOL    HW2 6490   3.112   0.902   2.850 -0.0375  0.5922 -0.0811
    1SOL    HW3 6491   3.184   0.835   2.735  0.0982 -0.0248  0.3598
    1SOL    MW4 6492   3.117   0.882   2.766  0.0274  0.0829  0.0455
    1SOL     OW 6493   3.157   1.133   2.659 -0.2338 -0.0598  0.1532
    1SOL    HW2 6494   3.152   1.038   2.670 -0.8056 -0.2180 -1.3426
    1SOL    HW3 6495   3.149   1.147   2.564  1.3371  1.3871  0.1988
    1SOL    MW4 6496   3.155   1.123   2.648 -0.1018  0.1101 -0.0379
    1SOL     OW 6497   3.349   1.297   2.787 -0.0925 -0.3517 -0.1155
    1SOL    HW2 6498   3.342   1.295   2.882  1.1352  1.8596  0.0753
    1SOL    HW3 6499   3.278   1.242   2.755 -0.9179 -0.5642  2.0623
    1SOL    MW4 6500   3.339   1.290   2.795 -0.0396 -0.0879  0.1969
    1SOL     OW 6501   3.376   1.534   2.655 -0.1817  0.3124 -0.4935
    1SOL    HW2 6502   3.291   1.566   2.685  1.2713  1.6239  2.3756
    1SOL    HW3 6503   3.383   1.446   2.693  0.3638  0.7998  0.5640
    1SOL    MW4 6504   3.366   1.526   2.664  0.0818  0.5500  0.0246
    1SOL     OW 6505   3.140   1.638   2.737  0.3923  0.0686 -0.4706
    1SOL    HW2 6506   3.160   1.719   2.689  0.3870  0.4890  0.2335
    1SOL    HW3 6507   3.062   1.604   2.693 -0.2370  1.0078 -0.0972
    1SOL    MW4 6508   3.132   1.644   2.725  0.3088  0.2480 -0.3285
    1SOL     OW 6509   3.148   1.910   2.630 -0.1630 -0.1299  0.3613
    1SOL    HW2 6510   3.225   1.963   2.653  0.8833 -1.8262  0.8822
    1SOL    HW3 6511   3.073   1.964   2.658  0.8736  0.8915  1.2636
    1SOL    MW4 6512   3.148   1.924   2.637  0.1118 -0.2190  0.5491
    1SOL     OW 6513   3.374   2.053   2.699 -0.0468 -0.3995  0.1932
    1SOL    HW2 6514   3.376   2.062   2.794  1.7968  2.1962 -0.0253
    1SOL    HW3 6515   3.373   2.143   2.667  2.4770 -1.1620 -2.2649
    1SOL    MW4 6516   3.374   2.066   2.707  0.5293 -0.1578 -0.1602
    1SOL     OW 6517   3.381   2.328   2.622 -0.1450 -0.2976  0.2420
    1SOL    HW2 6518   3.455   2.371   2.664  0.6327 -0.3729 -1.0440
    1SOL    HW3 6519   3.401   2.330   2.528 -2.0570  0.2419 -0.1771
    1SOL    MW4 6520   3.393   2.334   2.615 -0.2947 -0.2363  0.0169
    1SOL     OW 6521   3.125   2.437   2.728  0.0028 -0.1440 -0.1072
    1SOL    HW2 6522   3.134   2.522   2.686 -0.1637 -1.0012 -1.9045
    1SOL    HW3 6523   3.202   2.387   2.700 -1.1195 -1.3976 -1.0668
    1SOL    MW4 6524   3.136   2.442   2.719 -0.1674 -0.4225 -0.4709
    1SOL     OW 6525   3.132   2.691   2.616 -0.2154  0.2426  0.3336
    1SOL    HW2 6526   3.213   2.721   2.658  0.5096 -0.6567 -0.3735
    1SOL    HW3 6527   3.062   2.730   2.667  0.6608  0.1090  1.6735
    1SOL    MW4 6528   3.134   2.700   2.628 -0.0041  0.1061  0.4172
    1SOL     OW 6529   3.372   2.815   2.722 -0.2063  0.1268 -0.3688
    1SOL    HW2 6530   3.375   2.813   2.818  0.2165  0.5482 -0.3745
    1SOL    HW3 6531   3.449   2.765   2.695 -0.0990  0.3573 -0.4893
    1SOL    MW4 6532   3.382   2.808   2.731 -0.1361  0.2129 -0.3858
    1SOL     OW 6533   3.369   3.095   2.642  0.5058  0.1033  0.4750
    1SOL    HW2 6534   3.372   3.004   2.672 -2.6091 -0.0043  0.6410
    1SOL    HW3 6535   3.359   3.088   2.547 -0.3840  0.2340  0.5531
    1SOL    MW4 6536   3.368   3.082   2.634 -0.0226  0.1061  0.5071
    1SOL     OW 6537   3.139   3.221   2.744  0.1043 -0.4226  0.0604
    1SOL    HW2 6538   3.216   3.176   2.709 -0.5123 -0.8875 -0.7083
    1SOL    HW3 6539   3.065   3.176   2.705 -0.5368  1.1995 -0.6449
    1SOL    MW4 6540   3.140   3.209   2.735 -0.0618 -0.2699 -0.1345
    1SOL     OW 6541   3.114   3.478   2.623  0.1555  0.3475 -0.2262
    1SOL    HW2 6542   3.104   3.403   2.682  0.0349  0.6232  0.1051
    1SOL    HW3 6543   3.032   3.525   2.630 -0.2917 -0.2229 -1.4751
    1SOL    MW4 6544   3.102   3.474   2.632  0.0806  0.3083 -0.3474
    1SOL     OW 6545   3.335   3.617   2.715 -0.0960  0.1287 -0.1674
    1SOL    HW2 6546   3.329   3.618   2.810  0.8431 -1.4500 -0.0748
    1SOL    HW3 6547   3.257   3.569   2.686 -0.6956  1.1314 -0.2333
    1SOL    MW4 6548   3.324   3.611   2.724 -0.0513  0.0529 -0.1640
    1SOL     OW 6549   3.324   3.879   2.626  0.4461 -0.0052  0.5596
    1SOL    HW2 6550   3.343   3.791   2.657  2.1881  0.0464 -0.2758
    1SOL    HW3 6551   3.335   3.874   2.531 -0.1981  0.9360  0.4265
    1SOL    MW4 6552   3.328   3.867   2.618  0.5913  0.1256  0.4318
    1SOL     OW 6553   3.126   4.033   2.756 -0.3938 -0.0606  0.3356
    1SOL    HW2 6554   3.144   4.118   2.715 -0.3339 -1.1806 -2.0842
    1SOL    HW3 6555   3.187   3.973   2.713 -0.5344 -1.3684  1.9215
    1SOL    MW4 6556   3.137   4.036   2.745 -0.4046 -0.3810  0.2255
    1SOL     OW 6557   3.133   4.290   2.638  0.3139  0.5114 -0.1926
    1SOL    HW2 6558   3.050   4.293   2.685  0.9034  1.3847  0.8203
    1SOL    HW3 6559   3.111   4.252   2.553 -0.5932 -2.0325  1.1307
    1SOL    MW4 6560   3.119   4.285   2.633  0.2718  0.2913  0.1154
    1SOL     OW 6561   3.380   4.401   2.711 -0.8021  0.4509 -0.3887
    1SOL    HW2 6562   3.373   4.422   2.804  1.0373 -1.3870  0.2042
    1SOL    HW3 6563   3.292   4.373   2.686 -0.5242 -2.5729  1.7441
    1SOL    MW4 6564   3.368   4.400   2.720 -0.5229 -0.1903 -0.0291
    1SOL     OW 6565   3.810   0.013   2.635 -0.3006 -0.1427  0.3589
    1SOL    HW2 6566   3.809  -0.079   2.662 -0.0505 -0.3479 -0.3198
    1SOL    HW3 6567   3.729   0.050   2.671 -1.3811 -1.1156 -1.0161
    1SOL    MW4 6568   3.799   0.006   2.644 -0.4106 -0.2981  0.0882
    1SOL     OW 6569   3.557   0.133   2.737 -0.1514 -0.2173 -0.5924
    1SOL    HW2 6570   3.555   0.211   2.681 -0.5568 -0.2062 -0.5616
    1SOL    HW3 6571   3.483   0.080   2.707  0.0796 -0.5530 -0.5606
    1SOL    MW4 6572   3.547   0.137   2.726 -0.1745 -0.2601 -0.5844
    1SOL     OW 6573   3.572   0.376   2.607  0.7764  0.6565 -0.3616
    1SOL    HW2 6574   3.642   0.407   2.665  0.4425 -0.5965  0.7546
    1SOL    HW3 6575   3.492   0.414   2.643  0.5946  0.0633 -0.1296
    1SOL    MW4 6576   3.571   0.385   2.620  0.7081  0.4129 -0.1836
    1SOL     OW 6577   3.792   0.513   2.740  0.2415  0.4680  0.0840
    1SOL    HW2 6578   3.801   0.492   2.833  0.6222  2.0826  0.4235
    1SOL    HW3 6579   3.868   0.474   2.699  0.5878  0.5929  0.6017
    1SOL    MW4 6580   3.803   0.505   2.747  0.3374  0.6976  0.1969
    1SOL     OW 6581   3.792   0.777   2.632  0.0174  0.4654  0.4704
    1SOL    HW2 6582   3.723   0.835   2.665 -0.3267 -0.5827  1.6521
    1SOL    HW3 6583   3.764   0.689   2.659  0.3550 -0.3058 -1.5803
    1SOL    MW4 6584   3.779   0.773   2.640  0.0167  0.2254  0.3557
    1SOL     OW 6585   3.573   0.917   2.725  0.1462  0.4495  0.4358
    1SOL    HW2 6586   3.579   0.919   2.821  1.1180 -0.1095  0.3966
    1SOL    HW3 6587   3.551   1.006   2.700  2.6792  1.2884  1.0246
    1SOL    MW4 6588   3.571   0.929   2.735  0.6087  0.4864  0.5083
    1SOL     OW 6589   3.567   1.193   2.654  0.0606 -0.4910 -0.0469
    1SOL    HW2 6590   3.649   1.239   2.675  0.2104  0.2016 -2.0206
    1SOL    HW3 6591   3.501   1.234   2.710  0.3243  1.7000 -1.2893
    1SOL    MW4 6592   3.569   1.205   2.664  0.1152 -0.1104 -0.4711
    1SOL     OW 6593   3.814   1.311   2.704  0.0373 -0.0471 -0.1162
    1SOL    HW2 6594   3.889   1.267   2.662 -0.1044  0.0247 -0.4498
    1SOL    HW3 6595   3.806   1.394   2.657 -0.7687 -0.4178 -0.6345
    1SOL    MW4 6596   3.823   1.316   2.692 -0.0875 -0.0865 -0.2286
    1SOL     OW 6597   3.778   1.568   2.625 -0.1368  0.4569 -0.2137
    1SOL    HW2 6598   3.861   1.602   2.657 -0.6395  1.9229 -0.4303
    1SOL    HW3 6599   3.712   1.607   2.682 -0.6857 -0.7125 -0.0314
    1SOL    MW4 6600   3.780   1.578   2.636 -0.2756  0.4959 -0.2182
    1SOL     OW 6601   3.579   1.706   2.764  0.3489  0.0456 -0.0782
    1SOL    HW2 6602   3.574   1.782   2.707 -2.2046  0.8082  1.0609
    1SOL    HW3 6603   3.508   1.649   2.734  0.7920 -0.8330  0.5195
    1SOL    MW4 6604   3.569   1.708   2.753  0.0706  0.0304  0.1509
    1SOL     OW 6605   3.579   1.927   2.595  0.2901  0.0769 -0.1443
    1SOL    HW2 6606   3.497   1.963   2.629  0.3662  0.9365 -0.8612
    1SOL    HW3 6607   3.569   1.931   2.500  1.8721  1.8173 -0.2569
    1SOL    MW4 6608   3.567   1.932   2.587  0.5090  0.4199 -0.2537
    1SOL     OW 6609   3.782   2.077   2.695  0.6782  0.3003  0.0997
    1SOL    HW2 6610   3.859   2.024   2.676  0.6602 -0.8983  3.0710
    1SOL    HW3 6611   3.709   2.027   2.658  0.9568 -0.4056  0.4970
    1SOL    MW4 6612   3.782   2.063   2.688  0.7126  0.0486  0.5441
    1SOL     OW 6613   3.849   2.327   2.593 -0.3705 -0.1617 -0.3303
    1SOL    HW2 6614   3.818   2.245   2.632  0.1837 -0.2737 -0.1153
    1SOL    HW3 6615   3.846   2.311   2.499 -0.4421 -0.3652 -0.2956
    1SOL    MW4 6616   3.845   2.314   2.586 -0.3066 -0.2034 -0.2973
    1SOL     OW 6617   3.636   2.453   2.692  0.2138 -0.0338  0.2993
    1SOL    HW2 6618   3.633   2.448   2.788  2.1031  0.4092  0.3920
    1SOL    HW3 6619   3.712   2.400   2.668  0.1472  0.4199 -0.9239
    1SOL    MW4 6620   3.646   2.445   2.702  0.4542  0.0846  0.1502
    1SOL     OW 6621   3.599   2.711   2.607  1.2554  0.6132 -0.2716
    1SOL    HW2 6622   3.605   2.619   2.632 -1.1270  0.8477  1.2796
    1SOL    HW3 6623   3.611   2.711   2.512  0.0028 -1.4274 -0.4502
    1SOL    MW4 6624   3.601   2.699   2.598  0.7761  0.3753 -0.0906
    1SOL     OW 6625   3.828   2.850   2.699  0.4810 -0.1452  0.0909
    1SOL    HW2 6626   3.908   2.804   2.672 -0.1743  0.6318 -3.4967
    1SOL    HW3 6627   3.759   2.786   2.684  0.1837 -0.0169  0.9177
    1SOL    MW4 6628   3.830   2.835   2.693  0.3552 -0.0255 -0.2732
    1SOL     OW 6629   3.784   3.104   2.594  0.0394 -0.2416  0.4320
    1SOL    HW2 6630   3.713   3.148   2.640 -0.2585 -0.3168  0.0500
    1SOL    HW3 6631   3.784   3.015   2.628 -1.0800 -0.6972 -0.6911
    1SOL    MW4 6632   3.774   3.098   2.604 -0.1476 -0.3116  0.2332
    1SOL     OW 6633   3.570   3.238   2.747  0.0562  0.3054  0.2678
    1SOL    HW2 6634   3.572   3.325   2.706 -1.1310  0.0072 -0.4178
    1SOL    HW3 6635   3.499   3.192   2.703 -0.2417 -0.5409  1.6124
    1SOL    MW4 6636   3.561   3.244   2.736 -0.1395  0.1545  0.3548
    1SOL     OW 6637   3.573   3.491   2.645 -0.1821 -0.1265  0.4682
    1SOL    HW2 6638   3.644   3.541   2.686 -0.1315  0.5038 -0.3845
    1SOL    HW3 6639   3.494   3.542   2.661  0.1205  1.1666 -1.9361
    1SOL    MW4 6640   3.572   3.504   2.652 -0.1354  0.1273  0.0386
    1SOL     OW 6641   3.786   3.630   2.751 -0.1948 -0.5455  0.1477
    1SOL    HW2 6642   3.869   3.591   2.727 -0.1230 -0.4503  0.2391
    1SOL    HW3 6643   3.793   3.722   2.723  0.0358 -0.3389  0.8647
    1SOL    MW4 6644   3.798   3.637   2.744 -0.1552 -0.5057  0.2544
    1SOL     OW 6645   3.784   3.875   2.659 -0.2942 -0.3995  0.0783
    1SOL    HW2 6646   3.856   3.932   2.684  0.0789 -1.5214  1.6329
    1SOL    HW3 6647   3.707   3.915   2.698  0.0514 -1.2413  1.6755
    1SOL    MW4 6648   3.783   3.888   2.667 -0.1991 -0.6588  0.4942
    1SOL     OW 6649   3.550   4.015   2.764 -0.4471 -0.0679  0.4772
    1SOL    HW2 6650   3.579   4.092   2.714  0.2829 -0.6173  0.0481
    1SOL    HW3 6651   3.475   3.982   2.715  1.0493 -1.3711 -1.0215
    1SOL    MW4 6652   3.544   4.021   2.751 -0.1535 -0.3128  0.2224
    1SOL     OW 6653   3.608   4.276   2.640 -0.2617  0.1586  0.5335
    1SOL    HW2 6654   3.531   4.322   2.675 -1.3169 -0.1892 -1.2490
    1SOL    HW3 6655   3.588   4.265   2.547  1.8704 -0.1383  0.1033
    1SOL    MW4 6656   3.595   4.280   2.632 -0.1197  0.0730  0.2418
    1SOL     OW 6657   3.826   4.414   2.701  0.2115 -0.1129 -0.0288
    1SOL    HW2 6658   3.907   4.363   2.701 -0.0499 -0.5279 -0.4670
    1SOL    HW3 6659   3.759   4.353   2.674 -0.2151  0.2961  0.0972
    1SOL    MW4 6660   3.828   4.400   2.698  0.1206 -0.1135 -0.0699
    1SOL     OW 6661   4.225   0.001   2.630  0.2238  0.3138  0.1738
    1SOL    HW2 6662   4.150   0.031   2.682 -0.1000 -0.1960  0.0036
    1SOL    HW3 6663   4.301   0.041   2.671  0.0269 -0.5575  1.4123
    1SOL    MW4 6664   4.225   0.010   2.642  0.1550  0.1316  0.3147
    1SOL     OW 6665   4.011   0.122   2.781  0.3184 -0.0887 -0.3289
    1SOL    HW2 6666   3.999   0.127   2.876  3.0612 -0.6473  0.0854
    1SOL    HW3 6667   3.933   0.077   2.749 -1.2745  1.3063  1.4932
    1SOL    MW4 6668   3.999   0.117   2.789  0.4702  0.0216 -0.0339
    1SOL     OW 6669   4.009   0.362   2.664 -0.0116  0.4894  0.1489
    1SOL    HW2 6670   4.012   0.276   2.706 -0.5015  0.6715  0.5672
    1SOL    HW3 6671   4.026   0.344   2.571 -0.3850 -0.0922  0.1869
    1SOL    MW4 6672   4.011   0.348   2.657 -0.1254  0.4367  0.2091
    1SOL     OW 6673   4.222   0.530   2.730 -0.4075 -0.4040 -0.0657
    1SOL    HW2 6674   4.144   0.476   2.739 -0.0271 -0.9930 -0.3019
    1SOL    HW3 6675   4.280   0.479   2.673 -1.0071  1.2799 -2.2894
    1SOL    MW4 6676   4.219   0.516   2.724 -0.4368 -0.2595 -0.3905
    1SOL     OW 6677   4.259   0.790   2.610 -0.4952  0.1014 -0.4637
    1SOL    HW2 6678   4.237   0.710   2.658 -0.3110 -0.2495 -0.9485
    1SOL    HW3 6679   4.259   0.763   2.518  0.0026  0.5566 -0.6024
    1SOL    MW4 6680   4.256   0.776   2.604 -0.4053  0.1151 -0.5460
    1SOL     OW 6681   4.031   0.899   2.738 -0.2904  0.4012  0.2147
    1SOL    HW2 6682   4.102   0.861   2.687 -0.9429 -0.0375 -0.3700
    1SOL    HW3 6683   3.952   0.857   2.705 -0.8121  0.7696  0.9697
    1SOL    MW4 6684   4.030   0.889   2.727 -0.4454  0.3920  0.2372
    1SOL     OW 6685   4.035   1.166   2.636  0.5798  0.2712 -0.2317
    1SOL    HW2 6686   4.121   1.190   2.669  0.5043 -0.1469  0.2841
    1SOL    HW3 6687   4.017   1.081   2.676 -0.3252  0.6331  0.1447
    1SOL    MW4 6688   4.044   1.158   2.646  0.4501  0.2638 -0.1140
    1SOL     OW 6689   4.287   1.247   2.741 -0.6280  0.3930  0.3881
    1SOL    HW2 6690   4.282   1.338   2.712 -0.6948  0.0434 -0.7197
    1SOL    HW3 6691   4.364   1.212   2.695 -0.8522 -0.2288  0.4852
    1SOL    MW4 6692   4.297   1.255   2.731 -0.6661  0.2649  0.2546
    1SOL     OW 6693   4.202   1.509   2.669  0.2263  0.1897 -0.1160
    1SOL    HW2 6694   4.268   1.566   2.710 -0.6723  1.3736 -0.2725
    1SOL    HW3 6695   4.214   1.523   2.575  0.3121 -0.2447 -0.1699
    1SOL    MW4 6696   4.212   1.519   2.662  0.1187  0.2886 -0.1438
    1SOL     OW 6697   4.007   1.686   2.723  0.0881  0.1840  0.4415
    1SOL    HW2 6698   3.983   1.681   2.816  0.8569  1.3628  0.7156
    1SOL    HW3 6699   4.079   1.624   2.714 -1.8459 -2.0754 -0.0109
    1SOL    MW4 6700   4.013   1.678   2.734 -0.0653  0.0415  0.4177
    1SOL     OW 6701   4.020   1.951   2.611  0.1491 -0.2315 -0.7232
    1SOL    HW2 6702   4.094   1.987   2.659  0.2961 -0.1916 -0.9776
    1SOL    HW3 6703   4.001   1.867   2.655 -0.1280  0.1027 -0.1999
    1SOL    MW4 6704   4.027   1.944   2.623  0.1316 -0.1822 -0.6878
    1SOL     OW 6705   4.247   2.068   2.756 -0.2163  0.0801  0.3607
    1SOL    HW2 6706   4.267   2.151   2.713  0.2551 -0.3414 -0.2517
    1SOL    HW3 6707   4.325   2.014   2.742 -0.1464 -0.1449  1.5593
    1SOL    MW4 6708   4.260   2.072   2.749 -0.1450 -0.0052  0.4380
    1SOL     OW 6709   4.295   2.333   2.642 -0.3485  0.0930  0.1660
    1SOL    HW2 6710   4.210   2.372   2.666  0.3034  1.3766  0.4039
    1SOL    HW3 6711   4.294   2.329   2.547 -0.9014 -0.3984  0.1908
    1SOL    MW4 6712   4.283   2.338   2.633 -0.3357  0.1979  0.2007
    1SOL     OW 6713   4.058   2.462   2.722 -0.1433 -0.1109  0.4397
    1SOL    HW2 6714   4.037   2.451   2.815 -0.5074 -0.1203  0.3568
    1SOL    HW3 6715   3.984   2.423   2.676  0.6083 -1.2248  0.1348
    1SOL    MW4 6716   4.045   2.455   2.728 -0.0925 -0.2592  0.3886
    1SOL     OW 6717   4.062   2.724   2.627  0.2892 -0.4730 -0.3251
    1SOL    HW2 6718   4.151   2.752   2.649 -0.1407  1.1365 -0.5468
    1SOL    HW3 6719   4.057   2.633   2.656  2.0849 -0.6484 -0.5392
    1SOL    MW4 6720   4.073   2.716   2.634  0.4697 -0.2840 -0.3824
    1SOL     OW 6721   4.293   2.852   2.702 -0.4880  0.0049 -0.0491
    1SOL    HW2 6722   4.274   2.843   2.796 -0.0324 -0.0985  0.0355
    1SOL    HW3 6723   4.276   2.945   2.683  0.6889  0.3282  0.4302
    1SOL    MW4 6724   4.288   2.863   2.712 -0.2728  0.0341  0.0250
    1SOL     OW 6725   4.283   3.113   2.605 -0.0032  0.2522 -0.0396
    1SOL    HW2 6726   4.205   3.160   2.635  0.6882  0.2841  1.7496
    1SOL    HW3 6727   4.284   3.127   2.510 -2.1113  0.3404 -0.0832
    1SOL    MW4 6728   4.273   3.121   2.597 -0.1903  0.2680  0.1910
    1SOL     OW 6729   4.034   3.216   2.715  0.1097  0.2155  0.5549
    1SOL    HW2 6730   4.019   3.309   2.698  1.2614  0.3987  0.4438
    1SOL    HW3 6731   3.980   3.170   2.652  1.0556  0.8480 -0.7385
    1SOL    MW4 6732   4.025   3.222   2.705  0.3862  0.3231  0.3698
    1SOL     OW 6733   4.015   3.499   2.673 -0.1427 -0.2976 -0.3135
    1SOL    HW2 6734   4.101   3.530   2.703 -0.3828  0.5302 -0.4531
    1SOL    HW3 6735   4.020   3.503   2.578 -0.1899 -0.6594 -0.3306
    1SOL    MW4 6736   4.027   3.504   2.665 -0.1802 -0.2363 -0.3340
    1SOL     OW 6737   4.264   3.587   2.720  0.1257 -0.0581  0.3798
    1SOL    HW2 6738   4.271   3.609   2.813  1.3766 -0.2660  0.3394
    1SOL    HW3 6739   4.354   3.579   2.690 -0.2740 -2.2579 -0.3225
    1SOL    MW4 6740   4.277   3.589   2.728  0.2384 -0.3757  0.2820
    1SOL     OW 6741   4.265   3.848   2.619 -0.5764 -0.2717 -0.1505
    1SOL    HW2 6742   4.252   3.765   2.664 -1.5767  0.4483  0.9151
    1SOL    HW3 6743   4.331   3.894   2.671 -0.2783 -0.2591 -0.5404
    1SOL    MW4 6744   4.272   3.843   2.632 -0.6690 -0.1750 -0.0613
    1SOL     OW 6745   4.063   4.029   2.726 -0.3685 -0.2637 -0.2042
    1SOL    HW2 6746   4.068   4.038   2.822  0.8786 -0.1416 -0.2652
    1SOL    HW3 6747   4.133   3.968   2.705 -0.9865 -0.7014 -0.9984
    1SOL    MW4 6748   4.073   4.022   2.736 -0.2851 -0.3061 -0.3171
    1SOL     OW 6749   4.033   4.280   2.604 -0.1298 -0.0441 -0.0371
    1SOL    HW2 6750   4.042   4.192   2.640  0.2114 -0.4099 -0.9750
    1SOL    HW3 6751   4.004   4.266   2.514  0.4293  0.7780 -0.3553
    1SOL    MW4 6752   4.030   4.266   2.597 -0.0110  0.0157 -0.2027
    1SOL     OW 6753   4.259   4.407   2.704  0.0778 -0.5705  0.2114
    1SOL    HW2 6754   4.172   4.375   2.683 -0.2870  1.0027 -0.7468
    1SOL    HW3 6755   4.258   4.499   2.679  2.1629 -0.6475 -0.2598
    1SOL    MW4 6756   4.248   4.414   2.698  0.3047 -0.3729  0.0229
    1SOL     OW 6757   0.200   0.032   3.081  0.1478  0.3652 -0.5184
    1SOL    HW2 6758   0.180   0.032   3.175  0.6254 -2.2407 -0.3893
    1SOL    HW3 6759   0.122   0.070   3.041 -0.5159  0.4982  0.8599
    1SOL    MW4 6760   0.187   0.037   3.088  0.1233  0.0389 -0.3197
    1SOL     OW 6761   4.463   0.139   2.993 -0.1846  0.1526  0.4537
    1SOL    HW2 6762   4.402   0.081   3.038 -1.3989  0.8263 -0.2856
    1SOL    HW3 6763   4.463   0.219   3.045  1.3814 -0.4498  1.3950
    1SOL    MW4 6764   4.455   0.142   3.006 -0.1383  0.1620  0.4804
    1SOL     OW 6765   4.473   0.374   3.144  0.3129 -0.2156  0.0003
    1SOL    HW2 6766   4.481   0.375   3.240 -0.1868  0.0787  0.0423
    1SOL    HW3 6767   4.388   0.415   3.127  0.3794 -0.3134 -0.5681
    1SOL    MW4 6768   4.463   0.380   3.155  0.2556 -0.1897 -0.0694
    1SOL     OW 6769   0.193   0.533   3.033  0.4699 -0.1833  0.0274
    1SOL    HW2 6770   0.270   0.491   3.072  0.6854 -0.4256 -0.6418
    1SOL    HW3 6771   0.119   0.493   3.078  0.7401  0.2258  0.8471
    1SOL    MW4 6772   0.194   0.522   3.044  0.5340 -0.1612  0.0474
    1SOL     OW 6773   0.185   0.808   3.093 -0.3419  0.1828  0.3110
    1SOL    HW2 6774   0.179   0.810   3.188 -1.2014  0.6183  0.2557
    1SOL    HW3 6775   0.179   0.715   3.070 -2.8326  0.2378  0.5415
    1SOL    MW4 6776   0.183   0.796   3.102 -0.7839  0.2475  0.3340
    1SOL     OW 6777   4.440   0.914   2.970 -0.0437 -0.3653 -0.0204
    1SOL    HW2 6778   4.531   0.894   2.991  0.0445  0.4395  0.3704
    1SOL    HW3 6779   4.441   0.938   2.877  0.0648 -0.8347 -0.1395
    1SOL    MW4 6780   4.452   0.915   2.960 -0.0176 -0.3211  0.0155
    1SOL     OW 6781   4.435   1.118   3.165 -0.0046  0.0875 -0.3258
    1SOL    HW2 6782   4.375   1.184   3.130 -0.6803  0.0035  0.6666
    1SOL    HW3 6783   4.422   1.042   3.109  0.3290  0.5899 -1.0941
    1SOL    MW4 6784   4.425   1.117   3.153 -0.0496  0.1428 -0.2964
    1SOL     OW 6785   0.179   1.221   3.063  0.4816 -0.3487 -0.2098
    1SOL    HW2 6786   0.104   1.174   3.100  0.8559  0.2733  1.3450
    1SOL    HW3 6787   0.161   1.224   2.969 -1.4962 -0.1287  0.1601
    1SOL    MW4 6788   0.167   1.215   3.055  0.2700 -0.2377  0.0441
    1SOL     OW 6789   0.243   1.502   3.092 -0.2631 -0.6158  0.3201
    1SOL    HW2 6790   0.159   1.546   3.080 -0.2713 -0.5792  0.5095
    1SOL    HW3 6791   0.221   1.409   3.097 -0.1594 -0.7240 -0.9606
    1SOL    MW4 6792   0.229   1.496   3.091 -0.2505 -0.6253  0.1762
    1SOL     OW 6793   4.471   1.614   3.043 -0.0040 -0.2798  0.1153
    1SOL    HW2 6794   4.380   1.592   3.064  0.1318  0.2358  1.2993
    1SOL    HW3 6795   4.480   1.706   3.067  0.4744  0.0299 -1.2254
    1SOL    MW4 6796   4.460   1.623   3.049  0.0768 -0.1708  0.0947
    1SOL     OW 6797   0.006   1.914   3.081  0.2149  0.4755  0.2804
    1SOL    HW2 6798  -0.065   1.976   3.067  0.0896  0.0008 -1.1821
    1SOL    HW3 6799   0.086   1.966   3.067  0.1003  0.0676 -2.0591
    1SOL    MW4 6800   0.007   1.929   3.078  0.1831  0.3591 -0.2210
    1SOL     OW 6801   0.234   2.070   3.075  0.1277  0.1899  0.3425
    1SOL    HW2 6802   0.230   2.158   3.114  0.4497  0.0583  0.6755
    1SOL    HW3 6803   0.229   2.086   2.980  0.7536  0.6135  0.3704
    1SOL    MW4 6804   0.233   2.084   3.067  0.2528  0.2282  0.3903
    1SOL     OW 6805   0.203   2.367   3.114 -0.5088  0.5475 -0.0732
    1SOL    HW2 6806   0.229   2.345   3.204 -0.1125 -0.2060 -0.3645
    1SOL    HW3 6807   0.278   2.412   3.077  0.1682 -1.0545 -0.7063
    1SOL    MW4 6808   0.216   2.370   3.121 -0.3672  0.2367 -0.1953
    1SOL     OW 6809   4.451   2.446   3.068 -0.0910 -0.1650 -0.5971
    1SOL    HW2 6810   4.452   2.536   3.101 -0.6625 -0.3574 -0.0527
    1SOL    HW3 6811   4.536   2.410   3.095 -0.1537 -0.0144 -0.1994
    1SOL    MW4 6812   4.463   2.453   3.076 -0.1745 -0.1705 -0.4730
    1SOL     OW 6813   4.480   2.718   3.138 -0.1246  0.0390 -0.1106
    1SOL    HW2 6814   4.503   2.719   3.231 -1.2771  0.7003  0.1771
    1SOL    HW3 6815   4.555   2.756   3.094  0.1824  0.2684  0.6067
    1SOL    MW4 6816   4.493   2.723   3.144 -0.2360  0.1566  0.0219
    1SOL     OW 6817   0.232   2.836   3.046 -0.2244  0.7607 -0.0122
    1SOL    HW2 6818   0.320   2.808   3.074 -0.5563  0.7802  1.0673
    1SOL    HW3 6819   0.236   2.833   2.951  0.6221 -0.2650  0.0446
    1SOL    MW4 6820   0.244   2.832   3.037 -0.1565  0.6275  0.1376
    1SOL     OW 6821   0.233   3.106   3.089 -0.0216  0.0564 -0.8295
    1SOL    HW2 6822   0.145   3.142   3.076  0.3086  0.7508 -1.1680
    1SOL    HW3 6823   0.222   3.012   3.076 -0.7877  0.0919 -0.5040
    1SOL    MW4 6824   0.220   3.098   3.086 -0.0791  0.1526 -0.8311
    1SOL     OW 6825   4.479   3.212   3.050  0.5085  0.5215 -0.3538
    1SOL    HW2 6826   4.412   3.148   3.075 -0.1472  1.9907  1.9051
    1SOL    HW3 6827   4.466   3.225   2.957 -1.5955 -0.1059 -0.1836
    1SOL    MW4 6828   4.468   3.205   3.041  0.1445  0.6325 -0.0334
    1SOL     OW 6829   4.485   3.494   3.100 -0.1233  0.1189  0.1826
    1SOL    HW2 6830   4.418   3.547   3.056  0.3921  0.7055  0.0969
    1SOL    HW3 6831   4.463   3.404   3.077 -1.1144  0.2745  0.4758
    1SOL    MW4 6832   4.473   3.489   3.091 -0.1860  0.2167  0.2098
    1SOL     OW 6833   0.249   3.605   3.018 -0.0706  0.2387  0.0585
    1SOL    HW2 6834   0.237   3.697   3.041 -1.2553  0.3610 -1.0500
    1SOL    HW3 6835   0.178   3.559   3.063  0.1762 -0.0622  0.1425
    1SOL    MW4 6836   0.238   3.611   3.027 -0.1944  0.2151 -0.0765
    1SOL     OW 6837   0.202   3.868   3.066  0.6256  0.2894  0.3027
    1SOL    HW2 6838   0.189   3.871   3.161  0.9595  0.0225  0.3586
    1SOL    HW3 6839   0.285   3.912   3.052  0.3622  0.7181  0.0881
    1SOL    MW4 6840   0.211   3.874   3.077  0.6349  0.3109  0.2818
    1SOL     OW 6841   4.471   4.020   3.015 -0.4147 -0.5034 -0.4022
    1SOL    HW2 6842   4.551   3.972   3.037 -0.8923 -1.0026  0.2871
    1SOL    HW3 6843   4.467   4.017   2.919  1.2719  1.0005 -0.5445
    1SOL    MW4 6844   4.481   4.013   3.005 -0.2551 -0.3710 -0.3302
    1SOL     OW 6845   0.008   4.274   3.115  0.1796 -0.2720 -0.1310
    1SOL    HW2 6846  -0.008   4.271   3.210  0.1667 -0.9097 -0.1455
    1SOL    HW3 6847   0.024   4.182   3.092  1.9184  0.0872 -0.4399
    1SOL    MW4 6848   0.008   4.261   3.125  0.4072 -0.3095 -0.1736
    1SOL     OW 6849   0.241   4.425   3.040  0.0200 -0.0971  0.0138
    1SOL    HW2 6850   0.166   4.391   3.090 -0.4741  1.3966  0.2969
    1SOL    HW3 6851   0.241   4.519   3.056  1.3852  0.0599 -0.7748
    1SOL    MW4 6852   0.231   4.433   3.049  0.1349  0.1206 -0.0527
    1SOL     OW 6853   0.638   0.005   3.129 -0.0463  0.1054 -0.5216
    1SOL    HW2 6854   0.649  -0.083   3.094 -0.9640 -0.0175 -0.5178
    1SOL    HW3 6855   0.566   0.043   3.078  0.6152  1.0024 -0.8012
    1SOL    MW4 6856   0.630  -0.001   3.118 -0.0801  0.2075 -0.5581
    1SOL     OW 6857   0.434   0.142   3.001 -0.2836  0.1769  0.0401
    1SOL    HW2 6858   0.424   0.237   3.011 -1.7739 -0.1109  1.5697
    1SOL    HW3 6859   0.350   0.106   3.031  0.0844 -1.5954 -1.0082
    1SOL    MW4 6860   0.421   0.150   3.007 -0.4317 -0.0949  0.1040
    1SOL     OW 6861   0.442   0.408   3.083 -0.5325 -0.0958 -0.2024
    1SOL    HW2 6862   0.438   0.408   3.179  0.6836 -1.8177 -0.1373
    1SOL    HW3 6863   0.527   0.447   3.063 -1.2068  1.1935 -0.6306
    1SOL    MW4 6864   0.453   0.413   3.093 -0.4610 -0.1529 -0.2503
    1SOL     OW 6865   0.685   0.516   2.997  0.1985  0.2563  0.1439
    1SOL    HW2 6866   0.741   0.452   3.040 -2.0087 -0.1872  2.5365
    1SOL    HW3 6867   0.712   0.600   3.034  0.0719  0.1720  0.4309
    1SOL    MW4 6868   0.696   0.519   3.008 -0.1094  0.1867  0.4976
    1SOL     OW 6869   0.693   0.771   3.114  0.3582  0.3220  0.4216
    1SOL    HW2 6870   0.672   0.769   3.207  1.2340 -0.8629  0.5991
    1SOL    HW3 6871   0.615   0.808   3.072 -0.7135 -0.7814  1.4298
    1SOL    MW4 6872   0.680   0.776   3.121  0.3324  0.0201  0.5779
    1SOL     OW 6873   0.443   0.894   3.004  0.0539 -0.2896  0.0785
    1SOL    HW2 6874   0.363   0.851   3.034  0.1062 -0.4193  0.0319
    1SOL    HW3 6875   0.432   0.901   2.909 -0.1699  0.2374  0.1367
    1SOL    MW4 6876   0.431   0.890   2.995  0.0312 -0.2372  0.0801
    1SOL     OW 6877   0.434   1.137   3.132 -0.6042  0.2054 -0.1046
    1SOL    HW2 6878   0.447   1.046   3.106 -1.4796 -0.0637  0.4073
    1SOL    HW3 6879   0.344   1.157   3.107 -1.0375  0.3497  1.5173
    1SOL    MW4 6880   0.424   1.128   3.125 -0.7769  0.1891  0.1769
    1SOL     OW 6881   0.652   1.305   3.007  0.6556  0.0497 -0.5735
    1SOL    HW2 6882   0.723   1.271   3.060  1.2623 -0.9233 -1.9737
    1SOL    HW3 6883   0.572   1.269   3.046  1.0228  0.1116  0.2288
    1SOL    MW4 6884   0.651   1.296   3.019  0.7841 -0.0705 -0.6523
    1SOL     OW 6885   0.695   1.570   3.105 -0.3662  0.6306  0.2145
    1SOL    HW2 6886   0.689   1.551   3.198 -0.8854  1.8296  0.4339
    1SOL    HW3 6887   0.678   1.487   3.062 -0.7614  0.2134  1.1784
    1SOL    MW4 6888   0.692   1.557   3.111 -0.4868  0.7336  0.3705
    1SOL     OW 6889   0.470   1.706   3.025  0.0885 -0.3167 -0.3603
    1SOL    HW2 6890   0.557   1.674   3.049  0.4012  0.8676  0.1481
    1SOL    HW3 6891   0.410   1.640   3.059  0.7028 -0.2320  0.9519
    1SOL    MW4 6892   0.473   1.693   3.033  0.2108 -0.1491 -0.1199
    1SOL     OW 6893   0.493   1.972   3.136 -0.4065  0.3665  0.2119
    1SOL    HW2 6894   0.480   1.883   3.104  0.5597  0.4403 -0.4053
    1SOL    HW3 6895   0.409   2.015   3.121 -0.7665 -0.3435  0.1853
    1SOL    MW4 6896   0.480   1.966   3.130 -0.3265  0.2824  0.1273
    1SOL     OW 6897   0.711   2.073   2.986 -0.0713  0.4332 -0.2702
    1SOL    HW2 6898   0.799   2.043   3.009 -0.2446  0.2554  0.1731
    1SOL    HW3 6899   0.653   2.014   3.032 -0.4193  1.3284  0.4593
    1SOL    MW4 6900   0.715   2.062   2.995 -0.1401  0.5279 -0.1154
    1SOL     OW 6901   0.678   2.304   3.134 -0.1196  0.0661 -0.2840
    1SOL    HW2 6902   0.690   2.293   3.228  1.8677 -1.8119 -0.7105
    1SOL    HW3 6903   0.675   2.215   3.100 -0.4347  0.7374 -2.0637
    1SOL    MW4 6904   0.679   2.291   3.142  0.1010 -0.0932 -0.5751
    1SOL     OW 6905   0.445   2.458   3.027 -0.0197 -0.3703 -0.4217
    1SOL    HW2 6906   0.505   2.393   3.062 -1.3249 -1.6686 -0.5080
    1SOL    HW3 6907   0.457   2.453   2.932 -0.4793 -0.8836 -0.4617
    1SOL    MW4 6908   0.454   2.449   3.019 -0.2525 -0.6094 -0.4385
    1SOL     OW 6909   0.460   2.716   3.120  0.0360 -0.0775 -0.1797
    1SOL    HW2 6910   0.544   2.753   3.093 -0.7610  1.5525 -0.4657
    1SOL    HW3 6911   0.458   2.629   3.080  1.4600 -0.0080 -0.4022
    1SOL    MW4 6912   0.471   2.709   3.111  0.1187  0.1469 -0.2470
    1SOL     OW 6913   0.712   2.818   3.006 -0.6896 -0.0116 -0.1027
    1SOL    HW2 6914   0.784   2.768   3.043 -1.1051 -0.5659 -0.0500
    1SOL    HW3 6915   0.718   2.904   3.049  1.3185  0.7256 -1.7408
    1SOL    MW4 6916   0.722   2.823   3.017 -0.4795  0.0124 -0.3116
    1SOL     OW 6917   0.715   3.078   3.107  0.2159  0.0299  0.4846
    1SOL    HW2 6918   0.713   3.098   3.200  0.5401  1.8609  0.1191
    1SOL    HW3 6919   0.631   3.110   3.074 -0.0063 -0.8448  0.1808
    1SOL    MW4 6920   0.703   3.085   3.115  0.2294  0.1562  0.3963
    1SOL     OW 6921   0.481   3.195   3.010 -0.1490 -0.1420 -0.1928
    1SOL    HW2 6922   0.478   3.281   3.053  0.3456 -1.4921  2.6868
    1SOL    HW3 6923   0.398   3.154   3.033 -0.6009 -0.2786 -1.9938
    1SOL    MW4 6924   0.470   3.201   3.019 -0.1434 -0.3381 -0.0508
    1SOL     OW 6925   0.455   3.434   3.128  0.0004 -0.0471 -0.2845
    1SOL    HW2 6926   0.471   3.456   3.219  1.1231 -0.9788 -0.2496
    1SOL    HW3 6927   0.389   3.497   3.099  0.2382  0.7689  0.9336
    1SOL    MW4 6928   0.448   3.445   3.136  0.1799 -0.0622 -0.1192
    1SOL     OW 6929   0.657   3.595   3.023  0.2751  0.1186  0.2557
    1SOL    HW2 6930   0.742   3.577   3.061 -0.5454 -1.9575  1.1588
    1SOL    HW3 6931   0.597   3.533   3.065 -1.7316  1.6782 -0.1865
    1SOL    MW4 6932   0.660   3.585   3.034 -0.0979  0.0505  0.3166
    1SOL     OW 6933   0.622   3.861   3.111 -0.8330 -0.7047 -0.3499
    1SOL    HW2 6934   0.626   3.847   3.206 -0.1151  0.0602 -0.2525
    1SOL    HW3 6935   0.610   3.774   3.074 -2.3742 -0.8633  0.5060
    1SOL    MW4 6936   0.621   3.848   3.119 -0.9416 -0.6247 -0.2241
    1SOL     OW 6937   0.427   4.035   3.027  0.2540 -0.1360 -0.9223
    1SOL    HW2 6938   0.491   3.973   3.061  0.5400  0.4325 -0.4264
    1SOL    HW3 6939   0.437   4.029   2.932 -0.8762 -2.0569 -0.9427
    1SOL    MW4 6940   0.437   4.026   3.019  0.1426 -0.3138 -0.8600
    1SOL     OW 6941   0.469   4.295   3.116 -0.6798  0.2817 -0.6325
    1SOL    HW2 6942   0.452   4.214   3.068  1.8525 -0.6209 -0.0640
    1SOL    HW3 6943   0.394   4.351   3.095 -1.8902 -1.7648 -1.9631
    1SOL    MW4 6944   0.457   4.292   3.107 -0.5054 -0.1073 -0.7331
    1SOL     OW 6945   0.702   4.413   3.021 -0.0287 -0.4965  0.6149
    1SOL    HW2 6946   0.629   4.367   3.063  1.0949 -1.9626  0.9888
    1SOL    HW3 6947   0.674   4.422   2.929 -0.9264 -0.5235  0.8746
    1SOL    MW4 6948   0.688   4.408   3.014  0.0011 -0.6938  0.6986
    1SOL     OW 6949   1.100   4.653   3.120  0.2622 -0.0903 -0.6389
    1SOL    HW2 6950   1.187   4.686   3.100  0.2941  1.8691  2.4157
    1SOL    HW3 6951   1.041   4.713   3.073  0.4777  0.8381  0.2562
    1SOL    MW4 6952   1.104   4.666   3.111  0.2949  0.2904 -0.1178
    1SOL     OW 6953   0.870   0.091   3.004 -0.4911 -0.5051  0.3117
    1SOL    HW2 6954   0.884   0.180   3.034  0.6188 -0.6824  0.3516
    1SOL    HW3 6955   0.801   0.056   3.061 -0.4936  0.1208  0.6918
    1SOL    MW4 6956   0.863   0.098   3.016 -0.3451 -0.4459  0.3674
    1SOL     OW 6957   0.890   0.360   3.111 -0.2315 -0.6107 -0.4159
    1SOL    HW2 6958   0.883   0.348   3.205 -0.1626  0.0076 -0.3274
    1SOL    HW3 6959   0.974   0.405   3.098 -1.2884  1.3735 -0.5630
    1SOL    MW4 6960   0.900   0.365   3.122 -0.3618 -0.2674 -0.4234
    1SOL     OW 6961   1.104   0.499   3.028 -0.3136 -0.0289  0.1227
    1SOL    HW2 6962   1.181   0.445   3.048 -0.8679 -1.0282 -0.4049
    1SOL    HW3 6963   1.097   0.496   2.933 -1.3558 -0.4513  0.2100
    1SOL    MW4 6964   1.113   0.491   3.018 -0.5245 -0.2165  0.0644
    1SOL     OW 6965   1.144   0.747   3.147  0.5124 -0.1444  0.1455
    1SOL    HW2 6966   1.116   0.741   3.239  0.8439 -0.6324  0.2154
    1SOL    HW3 6967   1.134   0.659   3.112  0.4237  0.0326 -0.2793
    1SOL    MW4 6968   1.139   0.735   3.155  0.5445 -0.1854  0.0989
    1SOL     OW 6969   0.938   0.885   3.009  0.4600 -0.1547 -0.4176
    1SOL    HW2 6970   1.005   0.837   3.055  0.7624 -0.3393 -1.0426
    1SOL    HW3 6971   0.856   0.840   3.031  0.5291  0.1073  0.3881
    1SOL    MW4 6972   0.936   0.873   3.018  0.5090 -0.1444 -0.3936
    1SOL     OW 6973   0.880   1.145   3.105  0.0316 -0.5700 -0.3185
    1SOL    HW2 6974   0.956   1.195   3.077 -1.0937  0.0454 -2.3645
    1SOL    HW3 6975   0.899   1.055   3.080  1.2017 -0.8837  1.5816
    1SOL    MW4 6976   0.892   1.140   3.098  0.0376 -0.5302 -0.3378
    1SOL     OW 6977   1.107   1.298   3.012  0.5772  0.1839  0.9730
    1SOL    HW2 6978   1.189   1.253   3.031  0.1432 -0.4766  1.2859
    1SOL    HW3 6979   1.103   1.300   2.916 -0.5114 -2.4888  0.9351
    1SOL    MW4 6980   1.118   1.292   3.002  0.3765 -0.2559  1.0092
    1SOL     OW 6981   1.133   1.574   3.090  0.1917  0.0269 -0.3296
    1SOL    HW2 6982   1.219   1.600   3.057  0.0223  0.5043 -0.3902
    1SOL    HW3 6983   1.123   1.483   3.059  0.0327  0.4660 -1.6047
    1SOL    MW4 6984   1.143   1.565   3.081  0.1484  0.1478 -0.5054
    1SOL     OW 6985   0.928   1.700   2.966 -0.7501  0.0998 -0.2629
    1SOL    HW2 6986   1.007   1.666   3.008 -0.4693 -0.4232 -1.2134
    1SOL    HW3 6987   0.856   1.659   3.013 -0.4532  0.2079  0.2936
    1SOL    MW4 6988   0.929   1.690   2.978 -0.6738  0.0452 -0.3150
    1SOL     OW 6989   0.939   1.947   3.078  0.6333  0.0819  0.0467
    1SOL    HW2 6990   0.926   1.941   3.173 -2.6351 -0.3374 -0.3685
    1SOL    HW3 6991   0.922   1.859   3.045  0.0243  0.6102 -1.0950
    1SOL    MW4 6992   0.935   1.935   3.086  0.1217  0.0963 -0.1585
    1SOL     OW 6993   1.171   2.092   3.001  0.2931  0.3837 -0.1387
    1SOL    HW2 6994   1.090   2.049   3.030 -0.7859  1.7398 -1.1032
    1SOL    HW3 6995   1.175   2.073   2.907  0.9687  0.5451 -0.1401
    1SOL    MW4 6996   1.160   2.084   2.993  0.2398  0.5839 -0.2663
    1SOL     OW 6997   1.188   2.339   3.106  0.1793 -0.2322  0.4872
    1SOL    HW2 6998   1.101   2.377   3.098  0.1377 -0.3286  0.4834
    1SOL    HW3 6999   1.179   2.249   3.075  0.7452  0.3706 -1.5394
    1SOL    MW4 7000   1.176   2.332   3.101  0.2486 -0.1655  0.2193
    1SOL     OW 7001   0.939   2.438   3.068  0.1249 -0.1164  0.1888
    1SOL    HW2 7002   0.852   2.410   3.098 -0.2540 -1.0792 -1.7176
    1SOL    HW3 7003   0.937   2.423   2.973  1.6974  1.6894 -0.1527
    1SOL    MW4 7004   0.927   2.433   3.059  0.2824 -0.0052 -0.1078
    1SOL     OW 7005   0.940   2.707   3.155  0.0756  0.0673 -0.1295
    1SOL    HW2 7006   0.959   2.706   3.249 -0.2378  0.3067 -0.0615
    1SOL    HW3 7007   0.937   2.615   3.130  2.3508  0.0366 -0.3658
    1SOL    MW4 7008   0.942   2.695   3.164  0.3345  0.0947 -0.1519
    1SOL     OW 7009   1.136   2.825   2.993 -0.2267  0.6092 -0.1407
    1SOL    HW2 7010   1.140   2.916   3.023 -0.4836  0.3720  0.6241
    1SOL    HW3 7011   1.065   2.786   3.044 -0.6527  0.1878 -1.0429
    1SOL    MW4 7012   1.127   2.832   3.004 -0.3166  0.5226 -0.1590
    1SOL     OW 7013   1.167   3.079   3.118 -0.3647 -0.5095  0.1697
    1SOL    HW2 7014   1.248   3.127   3.101 -0.0014 -0.8215  1.0103
    1SOL    HW3 7015   1.097   3.139   3.091  0.1143  0.0538  0.1735
    1SOL    MW4 7016   1.169   3.093   3.112 -0.2536 -0.4768  0.2813
    1SOL     OW 7017   0.947   3.232   3.044 -0.2275 -0.3599 -0.2038
    1SOL    HW2 7018   0.867   3.185   3.070 -0.4289 -0.8326 -1.6053
    1SOL    HW3 7019   0.950   3.221   2.949  0.4910  1.2854 -0.3818
    1SOL    MW4 7020   0.937   3.224   3.035 -0.1593 -0.2053 -0.4122
    1SOL     OW 7021   0.889   3.495   3.116  0.2075  0.1058  0.0126
    1SOL    HW2 7022   0.969   3.534   3.080 -0.0533  0.6973  0.0568
    1SOL    HW3 7023   0.895   3.402   3.094  0.9582  0.1242  0.1072
    1SOL    MW4 7024   0.900   3.488   3.109  0.2720  0.1862  0.0310
    1SOL     OW 7025   1.126   3.619   3.024  0.0663 -0.1998 -0.3263
    1SOL    HW2 7026   1.202   3.565   3.046 -0.1223  0.1545  1.2245
    1SOL    HW3 7027   1.132   3.694   3.083  0.4599  1.6309 -2.5935
    1SOL    MW4 7028   1.137   3.622   3.035  0.0935  0.0887 -0.4210
    1SOL     OW 7029   1.120   3.865   3.172  0.6638  0.2258  0.2898
    1SOL    HW2 7030   1.109   3.859   3.267 -0.5983 -0.1883  0.1193
    1SOL    HW3 7031   1.039   3.902   3.140  0.4327 -1.1492 -0.7836
    1SOL    MW4 7032   1.108   3.869   3.181  0.4668 -0.0100  0.1259
    1SOL     OW 7033   0.888   3.954   3.034 -0.0871 -0.4979  0.3410
    1SOL    HW2 7034   0.802   3.915   3.050  0.1453 -0.6865  1.1852
    1SOL    HW3 7035   0.894   3.961   2.939 -1.9046  1.4523  0.3190
    1SOL    MW4 7036   0.877   3.950   3.024 -0.2962 -0.2658  0.4494
    1SOL     OW 7037   0.913   4.243   3.078  0.7122 -0.0020  0.6600
    1SOL    HW2 7038   0.898   4.151   3.054 -0.0283  0.1669  0.4814
    1SOL    HW3 7039   0.834   4.289   3.049  1.3584  0.8001  0.1579
    1SOL    MW4 7040   0.901   4.237   3.071  0.6997  0.1264  0.5701
    1SOL     OW 7041   1.153   4.397   3.036  0.2896 -0.0401  0.0604
    1SOL    HW2 7042   1.078   4.343   3.060 -0.2975  0.6871 -0.1152
    1SOL    HW3 7043   1.132   4.483   3.071  0.2999  0.5611 -1.3650
    1SOL    MW4 7044   1.140   4.401   3.044  0.2136  0.1345 -0.1509
    1SOL     OW 7045   1.578   4.604   3.134 -0.0726  0.0014 -0.4555
    1SOL    HW2 7046   1.567   4.614   3.229  0.5471 -1.6383 -0.1890
    1SOL    HW3 7047   1.511   4.661   3.096 -0.3924  0.6001  0.9662
    1SOL    MW4 7048   1.568   4.613   3.141 -0.0330 -0.1354 -0.2329
    1SOL     OW 7049   1.359   0.070   3.048 -0.2054  0.2108 -0.3729
    1SOL    HW2 7050   1.357   0.165   3.065 -1.5413  0.4662 -1.7745
    1SOL    HW3 7051   1.349   0.064   2.953  1.3167 -1.3052 -0.4495
    1SOL    MW4 7052   1.357   0.082   3.038 -0.1807  0.0445 -0.5679
    1SOL     OW 7053   1.325   0.329   3.095  0.0699  0.2758  0.2817
    1SOL    HW2 7054   1.327   0.341   3.190  3.0916  1.3720  0.1086
    1SOL    HW3 7055   1.404   0.372   3.063 -0.3068 -1.0752 -2.6296
    1SOL    MW4 7056   1.335   0.336   3.103  0.4189  0.2422 -0.1254
    1SOL     OW 7057   1.566   0.466   3.001 -0.4011  0.2256 -0.2994
    1SOL    HW2 7058   1.563   0.560   3.018 -1.6413  0.0803  0.4166
    1SOL    HW3 7059   1.565   0.458   2.906 -0.2477  0.9425 -0.3620
    1SOL    MW4 7060   1.565   0.477   2.991 -0.5444  0.3011 -0.2134
    1SOL     OW 7061   1.557   0.723   3.076 -0.4181  0.4909  0.5465
    1SOL    HW2 7062   1.562   0.755   3.167 -1.8600 -0.5382  1.0036
    1SOL    HW3 7063   1.492   0.780   3.034 -0.6958  0.1443  0.5084
    1SOL    MW4 7064   1.549   0.735   3.083 -0.6452  0.3093  0.6018
    1SOL     OW 7065   1.349   0.893   2.994  0.0819 -0.0589  0.2051
    1SOL    HW2 7066   1.352   0.975   3.043  0.6173  0.4778 -0.7166
    1SOL    HW3 7067   1.292   0.836   3.046 -1.4432  1.3691  0.1209
    1SOL    MW4 7068   1.342   0.896   3.008 -0.0488  0.2003  0.0722
    1SOL     OW 7069   1.341   1.156   3.122  0.0307 -0.3521 -0.3291
    1SOL    HW2 7070   1.345   1.157   3.218  0.7264 -2.2433 -0.3326
    1SOL    HW3 7071   1.422   1.199   3.094  0.4229 -0.9319 -0.0815
    1SOL    MW4 7072   1.352   1.162   3.131  0.1743 -0.6782 -0.2968
    1SOL     OW 7073   1.564   1.295   2.997  0.1115  0.1003 -0.1103
    1SOL    HW2 7074   1.642   1.245   3.022 -1.0268 -0.4059  2.5362
    1SOL    HW3 7075   1.583   1.384   3.025  0.4246  0.3279 -1.0285
    1SOL    MW4 7076   1.577   1.300   3.004  0.0026  0.0637  0.1178
    1SOL     OW 7077   1.587   1.537   3.102  0.1853  0.2986  0.1327
    1SOL    HW2 7078   1.665   1.588   3.083  0.6345 -0.3695  0.1648
    1SOL    HW3 7079   1.514   1.590   3.069  0.3941  2.2532  2.5914
    1SOL    MW4 7080   1.587   1.551   3.095  0.2723  0.4685  0.4613
    1SOL     OW 7081   1.369   1.657   2.989 -0.0998  0.2309 -0.0651
    1SOL    HW2 7082   1.383   1.746   3.020 -0.2102  0.4223 -0.5773
    1SOL    HW3 7083   1.383   1.661   2.895  0.9228 -0.4973  0.0435
    1SOL    MW4 7084   1.373   1.669   2.981  0.0204  0.1601 -0.1185
    1SOL     OW 7085   1.375   1.909   3.092 -0.5940 -0.0372 -0.5239
    1SOL    HW2 7086   1.367   1.918   3.187 -1.0709 -0.9834 -0.4703
    1SOL    HW3 7087   1.302   1.960   3.057  0.3056  1.3237 -0.4236
    1SOL    MW4 7088   1.364   1.917   3.100 -0.5383  0.0174 -0.5033
    1SOL     OW 7089   1.603   2.046   2.984 -0.2845  0.1709  0.0117
    1SOL    HW2 7090   1.516   2.018   3.014  0.3310 -1.6115  0.2362
    1SOL    HW3 7091   1.596   2.047   2.888 -0.2324 -1.1280 -0.0151
    1SOL    MW4 7092   1.591   2.042   2.975 -0.1965 -0.2358  0.0377
    1SOL     OW 7093   1.602   2.309   3.064 -0.4593  0.2768 -0.2996
    1SOL    HW2 7094   1.514   2.337   3.040 -0.1988  0.8312 -0.6228
    1SOL    HW3 7095   1.606   2.217   3.037 -0.3810  0.7140 -1.8155
    1SOL    MW4 7096   1.591   2.301   3.057 -0.4145  0.4077 -0.5419
    1SOL     OW 7097   1.375   2.494   2.987 -0.5271 -0.5140  0.3578
    1SOL    HW2 7098   1.310   2.431   3.018 -0.0303 -1.5782 -0.7107
    1SOL    HW3 7099   1.354   2.507   2.895 -0.0346  0.1525  0.3355
    1SOL    MW4 7100   1.364   2.487   2.979 -0.3966 -0.5667  0.2139
    1SOL     OW 7101   1.383   2.749   3.083  0.1340 -0.5985  0.8358
    1SOL    HW2 7102   1.392   2.656   3.060  0.3059  0.0086 -1.7166
    1SOL    HW3 7103   1.298   2.774   3.047  0.5802  0.5159  0.5489
    1SOL    MW4 7104   1.373   2.740   3.075  0.2155 -0.3715  0.4613
    1SOL     OW 7105   1.612   2.847   2.966 -0.1314  0.0569 -0.0875
    1SOL    HW2 7106   1.684   2.786   2.982  1.3950  2.1079  1.2202
    1SOL    HW3 7107   1.535   2.804   3.003  0.6110 -1.7039 -0.5440
    1SOL    MW4 7108   1.611   2.833   2.973  0.1682  0.0951  0.0253
    1SOL     OW 7109   1.608   3.104   3.118 -0.3941 -0.9380 -0.0107
    1SOL    HW2 7110   1.603   3.114   3.213  1.0403 -0.8089  0.0662
    1SOL    HW3 7111   1.588   3.012   3.102  0.3145 -1.1877  0.5064
    1SOL    MW4 7112   1.605   3.093   3.128 -0.1113 -0.9542  0.0677
    1SOL     OW 7113   1.369   3.213   3.000  0.1737 -0.1171  0.0703
    1SOL    HW2 7114   1.446   3.170   3.039  0.3866 -0.8252 -1.0847
    1SOL    HW3 7115   1.391   3.219   2.907 -1.4998 -1.0581 -0.4103
    1SOL    MW4 7116   1.382   3.208   2.993 -0.0190 -0.3345 -0.1454
    1SOL     OW 7117   1.346   3.484   3.094  0.1792  0.0228  0.9700
    1SOL    HW2 7118   1.347   3.476   3.190  1.9049 -1.0891  0.8934
    1SOL    HW3 7119   1.335   3.394   3.063 -2.7942  0.6471  0.1132
    1SOL    MW4 7120   1.345   3.471   3.103  0.0147 -0.0417  0.8469
    1SOL     OW 7121   1.608   3.560   3.016  0.0012 -0.0380  0.0999
    1SOL    HW2 7122   1.522   3.536   3.052 -0.5814  0.8995 -0.6459
    1SOL    HW3 7123   1.597   3.552   2.921  0.8405 -0.2401  0.0149
    1SOL    MW4 7124   1.595   3.555   3.008  0.0352  0.0589 -0.0100
    1SOL     OW 7125   1.566   3.821   3.106 -0.3089 -0.5341  0.0471
    1SOL    HW2 7126   1.648   3.862   3.077 -1.4044  1.3233 -0.5495
    1SOL    HW3 7127   1.569   3.732   3.071  0.6394  0.1016 -1.5291
    1SOL    MW4 7128   1.577   3.815   3.097 -0.3283 -0.2050 -0.2398
    1SOL     OW 7129   1.351   3.968   3.029 -0.0360  0.3485 -0.4951
    1SOL    HW2 7130   1.431   3.918   3.045 -0.9377 -0.8791  0.2490
    1SOL    HW3 7131   1.282   3.919   3.075 -1.1464  1.6040 -0.7920
    1SOL    MW4 7132   1.352   3.955   3.037 -0.3015  0.3524 -0.4358
    1SOL     OW 7133   1.350   4.227   3.120 -0.0591 -0.1108 -0.0000
    1SOL    HW2 7134   1.328   4.141   3.084 -1.8996 -0.1589  1.1595
    1SOL    HW3 7135   1.285   4.286   3.082 -0.2200  0.3549  0.9995
    1SOL    MW4 7136   1.339   4.223   3.110 -0.3232 -0.0563  0.2849
    1SOL     OW 7137   1.572   4.358   3.022  0.0118  0.1552  0.1056
    1SOL    HW2 7138   1.492   4.324   3.063  0.9495 -1.1794  0.8713
    1SOL    HW3 7139   1.585   4.444   3.062 -1.2424  0.5554 -0.3142
    1SOL    MW4 7140   1.563   4.365   3.033 -0.0299  0.0319  0.1512
    1SOL     OW 7141   2.027   4.620   3.072 -0.0588 -0.0066  0.2257
    1SOL    HW2 7142   2.040   4.633   3.166  1.0040  0.0145  0.0815
    1SOL    HW3 7143   1.941   4.659   3.054 -0.8523 -1.1755  1.4166
    1SOL    MW4 7144   2.017   4.627   3.082 -0.0236 -0.1578  0.3641
    1SOL     OW 7145   1.794   0.092   3.026  0.3705 -0.2982 -0.1957
    1SOL    HW2 7146   1.723   0.040   3.062 -0.1399  0.9794  0.6814
    1SOL    HW3 7147   1.779   0.092   2.932 -1.6430  1.1502  0.0985
    1SOL    MW4 7148   1.783   0.085   3.018  0.0374  0.0615 -0.0410
    1SOL     OW 7149   1.797   0.362   3.105  0.2449  0.2081  0.4848
    1SOL    HW2 7150   1.772   0.272   3.085  0.1369  0.1852  0.7159
    1SOL    HW3 7151   1.728   0.416   3.066  0.6189  0.2220 -0.1636
    1SOL    MW4 7152   1.785   0.358   3.097  0.2799  0.2069  0.4299
    1SOL     OW 7153   2.021   0.503   3.021  0.1047 -0.1328  0.4656
    1SOL    HW2 7154   1.949   0.456   3.063  1.1644 -1.4409  0.8700
    1SOL    HW3 7155   2.001   0.499   2.927 -0.0230 -1.0410  0.5286
    1SOL    MW4 7156   2.009   0.496   3.014  0.2277 -0.4252  0.5274
    1SOL     OW 7157   2.017   0.774   3.138 -0.0522 -0.3538 -0.0550
    1SOL    HW2 7158   1.939   0.822   3.110  1.4469  1.1065 -1.8657
    1SOL    HW3 7159   2.008   0.688   3.098 -0.7088 -0.1735 -0.3015
    1SOL    MW4 7160   2.006   0.769   3.129  0.0589 -0.1373 -0.3264
    1SOL     OW 7161   1.787   0.869   3.013  0.1891 -0.1998 -0.0410
    1SOL    HW2 7162   1.733   0.793   3.034 -0.0677  0.1759  0.7252
    1SOL    HW3 7163   1.799   0.866   2.919 -0.3292 -0.8534 -0.0873
    1SOL    MW4 7164   1.782   0.859   3.004  0.0869 -0.2365  0.0539
    1SOL     OW 7165   1.765   1.133   3.089  0.0291  0.5132  0.0380
    1SOL    HW2 7166   1.772   1.130   3.185 -0.4170 -0.2924  0.0502
    1SOL    HW3 7167   1.753   1.041   3.064 -0.1864  0.7631 -0.7645
    1SOL    MW4 7168   1.765   1.120   3.099 -0.0581  0.4399 -0.0663
    1SOL     OW 7169   2.001   1.261   3.005 -0.4713  0.1452 -0.5343
    1SOL    HW2 7170   2.076   1.203   3.022  0.0199  1.5621  2.3710
    1SOL    HW3 7171   1.926   1.211   3.035 -0.3497 -0.0514 -0.5538
    1SOL    MW4 7172   2.001   1.246   3.011 -0.3903  0.3061 -0.1535
    1SOL     OW 7173   2.050   1.510   3.098  0.3029 -0.1294  0.4501
    1SOL    HW2 7174   2.032   1.517   3.192 -2.0902 -0.0216  0.0198
    1SOL    HW3 7175   2.018   1.422   3.075 -0.0178  0.2256 -0.4520
    1SOL    MW4 7176   2.043   1.499   3.108 -0.0551 -0.0683  0.2744
    1SOL     OW 7177   1.839   1.661   3.006  0.3577 -0.1812 -0.2421
    1SOL    HW2 7178   1.859   1.751   3.030 -1.1625  0.3013 -0.7066
    1SOL    HW3 7179   1.917   1.611   3.031  0.4522  0.9462  1.8091
    1SOL    MW4 7180   1.852   1.666   3.012  0.1698  0.0312 -0.0327
    1SOL     OW 7181   1.843   1.929   3.091 -0.3173 -0.3769 -0.2014
    1SOL    HW2 7182   1.914   1.978   3.049 -0.6541 -0.7428 -1.2036
    1SOL    HW3 7183   1.763   1.958   3.048 -0.7357 -0.3540  0.5650
    1SOL    MW4 7184   1.842   1.939   3.080 -0.4169 -0.4221 -0.2325
    1SOL     OW 7185   2.062   2.049   2.984  0.0237  0.7812  0.1345
    1SOL    HW2 7186   2.133   2.003   3.029  1.2645  1.2115 -1.3463
    1SOL    HW3 7187   2.068   2.139   3.015  0.5493  0.9610 -0.4713
    1SOL    MW4 7188   2.072   2.055   2.994  0.2565  0.8619 -0.1411
    1SOL     OW 7189   2.060   2.310   3.082  0.3778  0.1068 -0.0861
    1SOL    HW2 7190   2.126   2.375   3.058 -0.1640 -0.4721 -3.3677
    1SOL    HW3 7191   1.977   2.349   3.052  0.1815 -2.5356 -3.2503
    1SOL    MW4 7192   2.058   2.324   3.075  0.2804 -0.3181 -0.9367
    1SOL     OW 7193   1.831   2.436   2.957  0.2126 -0.3916  0.2546
    1SOL    HW2 7194   1.837   2.526   2.989  0.4727 -0.1349 -0.5208
    1SOL    HW3 7195   1.748   2.403   2.994 -0.8847  0.8054 -1.0878
    1SOL    MW4 7196   1.821   2.443   2.966  0.1022 -0.1998 -0.0250
    1SOL     OW 7197   1.844   2.688   3.072 -0.1114 -0.1467 -0.3983
    1SOL    HW2 7198   1.831   2.689   3.167 -1.6736  0.0361 -0.6086
    1SOL    HW3 7199   1.923   2.741   3.058 -0.4059  0.5923  0.7174
    1SOL    MW4 7200   1.853   2.695   3.083 -0.3563 -0.0250 -0.2787
    1SOL     OW 7201   2.049   2.851   2.992 -0.0045  0.0680 -0.6359
    1SOL    HW2 7202   2.049   2.938   3.033 -2.8736  0.2022 -0.8547
    1SOL    HW3 7203   2.024   2.868   2.901 -0.3640 -0.9784 -0.7328
    1SOL    MW4 7204   2.046   2.865   2.986 -0.4303 -0.0522 -0.6773
    1SOL     OW 7205   2.052   3.110   3.103 -0.3274  0.3321 -0.1560
    1SOL    HW2 7206   2.045   3.107   3.199 -0.2768 -1.4420 -0.1918
    1SOL    HW3 7207   1.969   3.147   3.074 -0.8870 -0.3838  0.5091
    1SOL    MW4 7208   2.040   3.114   3.112 -0.3948  0.0038 -0.0730
    1SOL     OW 7209   1.834   3.253   3.049  0.0624 -0.6867  0.0611
    1SOL    HW2 7210   1.757   3.198   3.064  0.5716 -1.8630 -1.4914
    1SOL    HW3 7211   1.827   3.278   2.957  0.8721  0.2542  0.2521
    1SOL    MW4 7212   1.823   3.249   3.039  0.2364 -0.7176 -0.1185
    1SOL     OW 7213   1.855   3.513   3.149 -0.3539 -0.1278 -0.1384
    1SOL    HW2 7214   1.846   3.421   3.128 -0.7775  0.0044 -0.5526
    1SOL    HW3 7215   1.779   3.555   3.108 -0.1238  0.4134 -0.0226
    1SOL    MW4 7216   1.844   3.507   3.141 -0.3793 -0.0389 -0.1776
    1SOL     OW 7217   2.067   3.612   3.001 -0.1718 -0.5530 -0.1447
    1SOL    HW2 7218   2.061   3.700   3.038  0.6166 -0.7553  0.4740
    1SOL    HW3 7219   2.007   3.560   3.055  0.5257 -0.7198  0.4778
    1SOL    MW4 7220   2.058   3.617   3.013  0.0241 -0.6015  0.0191
    1SOL     OW 7221   1.994   3.828   3.173  0.4589 -0.1661  0.2746
    1SOL    HW2 7222   1.995   3.829   3.268 -1.3355  0.2369  0.3089
    1SOL    HW3 7223   1.921   3.885   3.149  0.7283 -0.4657 -1.3303
    1SOL    MW4 7224   1.984   3.836   3.182  0.2577 -0.1526  0.0672
    1SOL     OW 7225   1.778   3.969   3.022  0.0758 -0.1055  0.0655
    1SOL    HW2 7226   1.781   4.063   3.036  0.3888 -0.2426  0.9749
    1SOL    HW3 7227   1.790   3.958   2.928 -1.2117  0.8188 -0.2155
    1SOL    MW4 7228   1.780   3.980   3.012 -0.0527 -0.0019  0.1488
    1SOL     OW 7229   1.789   4.231   3.104 -0.3588 -0.5665 -0.3345
    1SOL    HW2 7230   1.861   4.265   3.050 -0.3525 -1.3981 -0.8549
    1SOL    HW3 7231   1.713   4.281   3.074  0.1774  1.0600  0.9493
    1SOL    MW4 7232   1.788   4.242   3.093 -0.2873 -0.4621 -0.2339
    1SOL     OW 7233   2.003   4.340   2.991 -0.2216 -0.4507 -0.5907
    1SOL    HW2 7234   2.015   4.428   3.025 -0.3321 -0.2150 -1.1556
    1SOL    HW3 7235   1.990   4.352   2.896  2.7597 -1.3136 -1.1422
    1SOL    MW4 7236   2.003   4.353   2.983  0.1574 -0.5336 -0.7381
    1SOL     OW 7237   2.467   4.665   3.097 -0.2869 -0.0256  0.0780
    1SOL    HW2 7238   2.478   4.580   3.055 -1.3765 -1.5165  2.6416
    1SOL    HW3 7239   2.387   4.701   3.060 -0.3434 -0.5735 -0.3314
    1SOL    MW4 7240   2.458   4.659   3.087 -0.4382 -0.2937  0.3622
    1SOL     OW 7241   2.239   0.100   2.975 -0.1302  0.2772 -0.7559
    1SOL    HW2 7242   2.229   0.181   3.026  0.2117 -0.2555  0.1686
    1SOL    HW3 7243   2.166   0.045   3.003  1.0917 -0.7257  0.5264
    1SOL    MW4 7244   2.228   0.104   2.986  0.0761  0.0746 -0.4647
    1SOL     OW 7245   2.262   0.345   3.109  0.5621  0.0734  0.3538
    1SOL    HW2 7246   2.230   0.346   3.200 -0.7852  0.3992 -0.1019
    1SOL    HW3 7247   2.198   0.398   3.061  0.3534 -1.4394 -1.0826
    1SOL    MW4 7248   2.249   0.352   3.115  0.3569 -0.0832  0.1042
    1SOL     OW 7249   2.475   0.480   3.007 -0.2506 -0.5976  0.1772
    1SOL    HW2 7250   2.406   0.431   3.051  0.3359 -1.0745  0.5641
    1SOL    HW3 7251   2.469   0.453   2.915 -0.4266 -0.8069  0.2504
    1SOL    MW4 7252   2.465   0.470   3.001 -0.1962 -0.6881  0.2379
    1SOL     OW 7253   2.482   0.748   3.117 -0.0156 -0.0221 -0.2352
    1SOL    HW2 7254   2.548   0.792   3.063  0.9344 -0.1157  0.8368
    1SOL    HW3 7255   2.494   0.655   3.099 -1.9932  0.1328 -2.4674
    1SOL    MW4 7256   2.492   0.742   3.108 -0.1512 -0.0141 -0.3881
    1SOL     OW 7257   2.248   0.834   2.987 -0.5462  0.4204  0.0648
    1SOL    HW2 7258   2.323   0.792   3.028 -0.5720  0.5142  0.2083
    1SOL    HW3 7259   2.172   0.804   3.038 -0.6087  0.3065 -0.0945
    1SOL    MW4 7260   2.247   0.825   2.999 -0.5579  0.4177  0.0627
    1SOL     OW 7261   2.242   1.114   3.060  0.1535  0.2160  0.0767
    1SOL    HW2 7262   2.234   1.133   3.153  1.0642  0.0614  0.1880
    1SOL    HW3 7263   2.240   1.018   3.055 -2.3854  0.2402 -0.2983
    1SOL    MW4 7264   2.241   1.104   3.072 -0.0615  0.1988  0.0420
    1SOL     OW 7265   2.487   1.261   3.000 -0.1751 -0.4714  0.2369
    1SOL    HW2 7266   2.410   1.210   3.027  0.6252 -2.5169 -1.1781
    1SOL    HW3 7267   2.491   1.248   2.905  0.2865  1.9596 -0.0876
    1SOL    MW4 7268   2.477   1.252   2.991 -0.0086 -0.4206  0.0076
    1SOL     OW 7269   2.499   1.507   3.128 -0.5020 -0.2363  0.0891
    1SOL    HW2 7270   2.418   1.551   3.104  0.5409  0.6897 -1.8561
    1SOL    HW3 7271   2.496   1.424   3.080 -0.6227 -0.5243  0.5906
    1SOL    MW4 7272   2.488   1.502   3.118 -0.3803 -0.1521 -0.1016
    1SOL     OW 7273   2.270   1.651   3.036 -0.1295  0.1424  0.1264
    1SOL    HW2 7274   2.201   1.589   3.056  0.4047 -0.5996 -0.3217
    1SOL    HW3 7275   2.265   1.664   2.941 -0.7888  1.4393  0.3253
    1SOL    MW4 7276   2.260   1.645   3.026 -0.1462  0.2156  0.0937
    1SOL     OW 7277   2.260   1.921   3.122 -0.2414  0.2485  0.4808
    1SOL    HW2 7278   2.341   1.956   3.083 -0.0471  1.4954  1.9842
    1SOL    HW3 7279   2.267   1.827   3.108 -0.1633  0.6448 -2.4768
    1SOL    MW4 7280   2.272   1.913   3.115 -0.2053  0.4654  0.2890
    1SOL     OW 7281   2.459   2.037   2.975 -0.2083 -0.0191 -0.2530
    1SOL    HW2 7282   2.544   2.008   3.008 -0.4199 -0.0139  0.2955
    1SOL    HW3 7283   2.472   2.044   2.880 -0.0397 -1.4861 -0.3447
    1SOL    MW4 7284   2.472   2.034   2.967 -0.2141 -0.2117 -0.1929
    1SOL     OW 7285   2.468   2.288   3.071 -0.1744 -0.3894  0.0609
    1SOL    HW2 7286   2.476   2.254   3.160 -1.3019 -1.1566 -0.1083
    1SOL    HW3 7287   2.443   2.211   3.019  0.4034  0.0631 -0.9083
    1SOL    MW4 7288   2.466   2.273   3.076 -0.2470 -0.4306 -0.0889
    1SOL     OW 7289   2.269   2.446   2.980  0.0274 -0.1785  0.2767
    1SOL    HW2 7290   2.281   2.530   3.024 -0.4542 -0.9501  1.9296
    1SOL    HW3 7291   2.345   2.394   3.006  0.1920 -0.3384 -0.5231
    1SOL    MW4 7292   2.280   2.450   2.990 -0.0145 -0.3011  0.3893
    1SOL     OW 7293   2.277   2.707   3.074 -0.1388  0.6161 -0.8857
    1SOL    HW2 7294   2.358   2.753   3.054  0.3279 -1.4623 -4.2035
    1SOL    HW3 7295   2.210   2.749   3.021 -0.5558  0.1521 -0.7436
    1SOL    MW4 7296   2.279   2.718   3.065 -0.1323  0.2809 -1.3049
    1SOL     OW 7297   2.524   2.852   3.035  0.1099 -0.3867  0.0522
    1SOL    HW2 7298   2.525   2.943   3.065  0.8468 -0.5637  0.5771
    1SOL    HW3 7299   2.500   2.858   2.943 -0.4332  0.2961  0.2348
    1SOL    MW4 7300   2.521   2.865   3.027  0.1357 -0.3202  0.1459
    1SOL     OW 7301   2.522   3.137   3.102  0.4595 -0.4833 -0.1146
    1SOL    HW2 7302   2.591   3.188   3.059  0.0160  1.1951  1.0664
    1SOL    HW3 7303   2.440   3.180   3.076  0.0852 -0.4694  1.0293
    1SOL    MW4 7304   2.520   3.150   3.093  0.3517 -0.2596  0.1926
    1SOL     OW 7305   2.294   3.257   3.012 -0.6876  0.5035 -0.1258
    1SOL    HW2 7306   2.296   3.338   3.063 -1.2898  0.8393 -0.6294
    1SOL    HW3 7307   2.233   3.200   3.058  0.2538  0.0667  0.6130
    1SOL    MW4 7308   2.286   3.260   3.025 -0.6430  0.4904 -0.0949
    1SOL     OW 7309   2.289   3.507   3.115  0.4908 -0.1715 -0.0536
    1SOL    HW2 7310   2.345   3.537   3.044 -0.5112 -2.6606 -1.9681
    1SOL    HW3 7311   2.202   3.541   3.093  0.3588 -0.1400  0.5072
    1SOL    MW4 7312   2.285   3.515   3.103  0.3412 -0.4954 -0.2325
    1SOL     OW 7313   2.509   3.594   2.971  0.0589  0.0023  0.0759
    1SOL    HW2 7314   2.592   3.554   2.995  0.0552 -0.2631 -0.3547
    1SOL    HW3 7315   2.515   3.683   3.006  0.7309  0.1469 -0.3814
    1SOL    MW4 7316   2.521   3.601   2.978  0.1471 -0.0136 -0.0415
    1SOL     OW 7317   2.476   3.837   3.099 -0.5954  0.0901 -0.1856
    1SOL    HW2 7318   2.471   3.829   3.195  0.2353 -0.3981 -0.1735
    1SOL    HW3 7319   2.528   3.916   3.085  1.2489 -1.0850 -0.1977
    1SOL    MW4 7320   2.482   3.847   3.110 -0.2425 -0.1295 -0.1857
    1SOL     OW 7321   2.203   3.939   3.014  0.3622 -0.4645  0.0919
    1SOL    HW2 7322   2.271   3.898   3.066 -0.9533 -2.0175  0.6403
    1SOL    HW3 7323   2.123   3.930   3.066 -0.0915  2.3309 -0.0207
    1SOL    MW4 7324   2.201   3.932   3.027  0.1287 -0.3004  0.1495
    1SOL     OW 7325   2.247   4.212   3.094  0.7053 -0.3182 -0.0644
    1SOL    HW2 7326   2.258   4.121   3.067  2.0677  0.4624 -2.2109
    1SOL    HW3 7327   2.171   4.243   3.044 -1.0980 -0.8730  2.2722
    1SOL    MW4 7328   2.238   4.204   3.084  0.6471 -0.2880 -0.0391
    1SOL     OW 7329   2.457   4.405   3.008  0.1445  0.3867 -0.7602
    1SOL    HW2 7330   2.380   4.356   3.039  0.5936  0.7310  0.8976
    1SOL    HW3 7331   2.446   4.407   2.913 -1.4524 -0.3280 -0.6132
    1SOL    MW4 7332   2.445   4.398   2.999 -0.0072  0.3376 -0.5219
    1SOL     OW 7333   2.909   4.667   3.108  0.2370 -0.1659 -0.2397
    1SOL    HW2 7334   2.976   4.715   3.060 -0.0494 -0.3212 -0.8008
    1SOL    HW3 7335   2.910   4.579   3.069  1.0899 -0.7658  1.1005
    1SOL    MW4 7336   2.918   4.661   3.096  0.3119 -0.2651 -0.1366
    1SOL     OW 7337   2.685   0.120   2.987  0.2611 -0.1021  0.0668
    1SOL    HW2 7338   2.761   0.065   3.008 -0.4962 -1.7780 -1.4544
    1SOL    HW3 7339   2.611   0.075   3.029 -0.0238  1.0943  0.8684
    1SOL    MW4 7340   2.685   0.107   2.996  0.1240 -0.1654 -0.0281
    1SOL     OW 7341   2.725   0.396   3.073 -0.0271 -0.2114 -0.1421
    1SOL    HW2 7342   2.722   0.301   3.064 -0.6071 -0.4337  2.0360
    1SOL    HW3 7343   2.641   0.427   3.041  0.2668 -0.3948 -1.1074
    1SOL    MW4 7344   2.714   0.388   3.068 -0.0646 -0.2649  0.0176
    1SOL     OW 7345   2.964   0.479   2.975 -0.6159  0.3758  0.7659
    1SOL    HW2 7346   2.883   0.452   3.020  0.3513  0.5322  2.6133
    1SOL    HW3 7347   2.937   0.489   2.883 -2.9198  1.3229  1.4932
    1SOL    MW4 7348   2.949   0.477   2.968 -0.7925  0.5214  1.1055
    1SOL     OW 7349   2.895   0.744   3.067  0.3847 -0.0959  0.7607
    1SOL    HW2 7350   2.918   0.759   3.158  1.7679  0.9380  0.2595
    1SOL    HW3 7351   2.930   0.657   3.047  2.0309  0.5970  0.5983
    1SOL    MW4 7352   2.903   0.734   3.076  0.7846  0.1320  0.6731
    1SOL     OW 7353   2.659   0.870   2.970 -0.3652  0.6210 -0.3625
    1SOL    HW2 7354   2.670   0.953   3.018  0.3190  0.0729  0.4397
    1SOL    HW3 7355   2.728   0.814   3.004  0.4427  0.3712 -2.3274
    1SOL    MW4 7356   2.670   0.874   2.981 -0.1686  0.5158 -0.5159
    1SOL     OW 7357   2.696   1.105   3.099  0.0566  0.2157 -0.3183
    1SOL    HW2 7358   2.776   1.145   3.065  0.6620  0.9793  1.9133
    1SOL    HW3 7359   2.628   1.170   3.082  0.5501  1.0595  0.8931
    1SOL    MW4 7360   2.698   1.118   3.092  0.2015  0.4277  0.1357
    1SOL     OW 7361   2.922   1.239   3.016 -0.2809  0.3821 -0.2378
    1SOL    HW2 7362   2.989   1.201   3.073 -1.1933  0.8904  1.1933
    1SOL    HW3 7363   2.925   1.333   3.035 -1.5519  0.3843  0.0019
    1SOL    MW4 7364   2.931   1.246   3.026 -0.5691  0.4494 -0.0172
    1SOL     OW 7365   2.923   1.492   3.085 -0.3544  0.2357 -0.2945
    1SOL    HW2 7366   2.928   1.491   3.180  2.0743  0.0025 -0.3781
    1SOL    HW3 7367   3.004   1.535   3.057 -0.3416 -0.9964 -2.2761
    1SOL    MW4 7368   2.935   1.498   3.094 -0.0322  0.0423 -0.5670
    1SOL     OW 7369   2.712   1.661   3.045  0.1194  0.2972 -0.6301
    1SOL    HW2 7370   2.780   1.595   3.051 -0.4853 -0.3863 -1.1094
    1SOL    HW3 7371   2.631   1.613   3.063 -0.3483  0.8486 -1.2437
    1SOL    MW4 7372   2.710   1.646   3.048 -0.0222  0.2798 -0.7744
    1SOL     OW 7373   2.704   1.938   3.090 -0.1699  0.5655 -0.2818
    1SOL    HW2 7374   2.777   1.990   3.057  0.8666 -0.1370  0.8978
    1SOL    HW3 7375   2.726   1.848   3.067 -1.1847  0.4462 -0.8577
    1SOL    MW4 7376   2.716   1.933   3.083 -0.1674  0.4569 -0.2019
    1SOL     OW 7377   2.877   2.105   2.971 -0.1472  0.7213 -0.0977
    1SOL    HW2 7378   2.883   2.196   3.002 -0.5090  0.3865  0.9658
    1SOL    HW3 7379   2.869   2.113   2.875 -0.0452  1.8044 -0.0215
    1SOL    MW4 7380   2.877   2.118   2.962 -0.1817  0.8199  0.0529
    1SOL     OW 7381   2.898   2.343   3.100  0.1449 -0.1544  0.1210
    1SOL    HW2 7382   2.973   2.402   3.100 -0.3689  0.5197 -0.2071
    1SOL    HW3 7383   2.834   2.386   3.042  0.2636 -1.7003 -1.1809
    1SOL    MW4 7384   2.899   2.357   3.093  0.0927 -0.2694 -0.0942
    1SOL     OW 7385   2.684   2.425   2.936  0.2423 -0.1525  0.6507
    1SOL    HW2 7386   2.678   2.509   2.980 -0.0374 -0.2129  0.7292
    1SOL    HW3 7387   2.614   2.372   2.975  0.6158 -0.5248  0.8308
    1SOL    MW4 7388   2.674   2.429   2.947  0.2544 -0.2096  0.6845
    1SOL     OW 7389   2.726   2.660   3.070 -0.0971 -0.4090 -0.2337
    1SOL    HW2 7390   2.726   2.657   3.166 -1.1355 -1.3047 -0.2506
    1SOL    HW3 7391   2.656   2.721   3.048  0.2469 -0.0813 -0.4190
    1SOL    MW4 7392   2.717   2.668   3.080 -0.1886 -0.4840 -0.2599
    1SOL     OW 7393   2.951   2.834   2.971 -0.0159  0.1412  0.1178
    1SOL    HW2 7394   3.029   2.788   3.003 -1.0061 -1.2955  0.5308
    1SOL    HW3 7395   2.880   2.799   3.025 -1.0850  0.7414 -0.8944
    1SOL    MW4 7396   2.952   2.823   2.983 -0.2873  0.0308  0.0389
    1SOL     OW 7397   2.944   3.075   3.099 -0.2515 -0.4190 -0.0360
    1SOL    HW2 7398   2.860   3.108   3.065 -0.3098  0.1545  0.6487
    1SOL    HW3 7399   2.958   2.993   3.053 -0.4160  0.2613 -1.3211
    1SOL    MW4 7400   2.935   3.068   3.089 -0.2809 -0.2534 -0.1154
    1SOL     OW 7401   2.750   3.223   2.980 -0.1290  0.1617 -0.2530
    1SOL    HW2 7402   2.765   3.314   3.006  0.4629  0.0744 -0.2688
    1SOL    HW3 7403   2.738   3.227   2.885 -0.2162  0.2390 -0.2387
    1SOL    MW4 7404   2.751   3.235   2.971 -0.0625  0.1602 -0.2532
    1SOL     OW 7405   2.754   3.491   3.046 -0.5156  0.0125 -0.1264
    1SOL    HW2 7406   2.747   3.482   3.141  1.0217 -1.8029 -0.1614
    1SOL    HW3 7407   2.813   3.564   3.032  0.3914 -0.6247  0.3399
    1SOL    MW4 7408   2.761   3.499   3.057 -0.1931 -0.3109 -0.0696
    1SOL     OW 7409   2.950   3.673   2.977  0.1441  0.1148  0.2237
    1SOL    HW2 7410   3.022   3.624   3.017  1.2595  0.6782 -1.0235
    1SOL    HW3 7411   2.950   3.757   3.022  2.4352  1.3545 -1.9425
    1SOL    MW4 7412   2.960   3.678   2.988  0.5934  0.3526 -0.2267
    1SOL     OW 7413   2.907   3.899   3.118  0.0304 -0.2272  0.6389
    1SOL    HW2 7414   2.908   3.879   3.212  0.5858 -0.0788  0.6659
    1SOL    HW3 7415   2.818   3.930   3.101 -0.4197 -1.3497  0.8897
    1SOL    MW4 7416   2.896   3.900   3.129  0.0443 -0.3557  0.6754
    1SOL     OW 7417   2.671   4.028   3.050  0.2241  0.5864  0.6440
    1SOL    HW2 7418   2.686   4.122   3.057 -0.7861  0.7685  0.4266
    1SOL    HW3 7419   2.667   4.011   2.956  2.1788  0.0301  0.6389
    1SOL    MW4 7420   2.672   4.038   3.039  0.3486  0.5369  0.6149
    1SOL     OW 7421   2.709   4.307   3.101 -0.0692 -0.0976 -0.4334
    1SOL    HW2 7422   2.689   4.298   3.194 -0.3506 -0.6241 -0.5407
    1SOL    HW3 7423   2.626   4.334   3.061 -0.1269 -0.5754 -0.6353
    1SOL    MW4 7424   2.695   4.310   3.108 -0.1137 -0.2303 -0.4742
    1SOL     OW 7425   2.938   4.419   2.993 -0.2538  0.5139  0.0629
    1SOL    HW2 7426   3.021   4.379   3.020 -0.1037  0.7818  0.0016
    1SOL    HW3 7427   2.874   4.385   3.055 -0.2897 -0.5266 -0.5401
    1SOL    MW4 7428   2.941   4.410   3.005 -0.2387  0.4125 -0.0248
    1SOL     OW 7429   3.369   0.002   3.093  0.0038  0.4512  0.0097
    1SOL    HW2 7430   3.445   0.052   3.062 -0.3775  0.7343 -0.4697
    1SOL    HW3 7431   3.385  -0.087   3.062 -0.0203  0.5796 -0.3673
    1SOL    MW4 7432   3.381  -0.003   3.085 -0.0498  0.5054 -0.1032
    1SOL     OW 7433   3.150   0.123   2.983  0.6626 -0.2650  0.0935
    1SOL    HW2 7434   3.146   0.204   3.032  0.6842 -1.1235  1.5340
    1SOL    HW3 7435   3.224   0.075   3.021  0.5997 -0.9921 -0.6821
    1SOL    MW4 7436   3.159   0.127   2.994  0.6571 -0.4742  0.1812
    1SOL     OW 7437   3.158   0.390   3.127  0.1266  0.2516  0.3968
    1SOL    HW2 7438   3.237   0.430   3.090  0.2356  0.6172  1.0093
    1SOL    HW3 7439   3.087   0.422   3.072  0.2929  0.7547  0.4679
    1SOL    MW4 7440   3.159   0.400   3.115  0.1628  0.3662  0.4871
    1SOL     OW 7441   3.360   0.496   2.976 -0.2523 -0.1171  0.4767
    1SOL    HW2 7442   3.445   0.454   2.994 -0.0438  0.3697  0.6377
    1SOL    HW3 7443   3.354   0.498   2.881 -0.6302 -1.2498  0.4700
    1SOL    MW4 7444   3.370   0.491   2.966 -0.2747 -0.2024  0.4969
    1SOL     OW 7445   3.361   0.753   3.070  0.2294  0.2086 -0.8597
    1SOL    HW2 7446   3.356   0.736   3.164 -3.3600  0.7018 -0.8662
    1SOL    HW3 7447   3.372   0.667   3.030 -0.8586 -0.2983 -0.0956
    1SOL    MW4 7448   3.362   0.740   3.077 -0.3874  0.2069 -0.7596
    1SOL     OW 7449   3.120   0.899   3.028  0.5588 -0.3851 -0.0426
    1SOL    HW2 7450   3.194   0.845   3.058  0.8385  0.1286  0.1909
    1SOL    HW3 7451   3.044   0.842   3.040  0.7901 -0.5538  0.6789
    1SOL    MW4 7452   3.120   0.884   3.033  0.6263 -0.3396  0.0832
    1SOL     OW 7453   3.116   1.139   3.161  0.1838 -0.3230 -0.1095
    1SOL    HW2 7454   3.193   1.187   3.130 -0.7191  0.1034 -1.7616
    1SOL    HW3 7455   3.107   1.065   3.100  1.3302 -2.4063  2.1721
    1SOL    MW4 7456   3.125   1.135   3.149  0.2160 -0.5416 -0.0267
    1SOL     OW 7457   3.333   1.291   3.071 -0.5313  0.3867 -0.1312
    1SOL    HW2 7458   3.415   1.259   3.109 -1.6576 -1.2482  0.9971
    1SOL    HW3 7459   3.316   1.373   3.118 -0.3549 -0.0719  0.7433
    1SOL    MW4 7460   3.342   1.298   3.083 -0.6568  0.1104  0.1333
    1SOL     OW 7461   3.311   1.549   3.146  0.3033  0.1162 -0.0212
    1SOL    HW2 7462   3.329   1.562   3.239  1.7795 -1.2154 -0.0916
    1SOL    HW3 7463   3.386   1.589   3.102  0.0585 -0.0705 -0.6054
    1SOL    MW4 7464   3.323   1.556   3.152  0.4656 -0.0842 -0.1075
    1SOL     OW 7465   3.097   1.678   2.995  0.3507  0.3471 -0.6388
    1SOL    HW2 7466   3.172   1.642   3.042  0.9130  1.8647 -0.3360
    1SOL    HW3 7467   3.119   1.665   2.902  0.1331 -0.8714 -0.5308
    1SOL    MW4 7468   3.110   1.671   2.989  0.3965  0.3866 -0.5846
    1SOL     OW 7469   3.117   1.954   3.049  0.1009  0.2645 -0.4757
    1SOL    HW2 7470   3.086   1.864   3.037 -0.0887  0.1199  1.0083
    1SOL    HW3 7471   3.041   2.008   3.030 -0.2163  0.0444  0.1682
    1SOL    MW4 7472   3.103   1.949   3.045  0.0339  0.2165 -0.1950
    1SOL     OW 7473   3.359   2.065   2.970  0.5797  0.3796  0.1508
    1SOL    HW2 7474   3.419   2.027   3.035  1.6341  0.3700 -0.8058
    1SOL    HW3 7475   3.273   2.031   2.994  1.2001 -0.9169  0.5978
    1SOL    MW4 7476   3.356   2.055   2.982  0.8008  0.2072  0.0837
    1SOL     OW 7477   3.376   2.328   3.074 -0.0696 -0.4592  0.4733
    1SOL    HW2 7478   3.394   2.306   3.165 -2.1457 -0.4242  0.9128
    1SOL    HW3 7479   3.368   2.243   3.030 -1.7408 -0.5266  0.8820
    1SOL    MW4 7480   3.378   2.314   3.080 -0.5639 -0.4635  0.5851
    1SOL     OW 7481   3.136   2.433   3.031 -0.3246 -0.6667 -0.3395
    1SOL    HW2 7482   3.223   2.395   3.023  0.4892  1.1535 -0.1399
    1SOL    HW3 7483   3.111   2.453   2.941 -0.2463 -0.5107 -0.3255
    1SOL    MW4 7484   3.144   2.430   3.018 -0.2069 -0.4060 -0.3114
    1SOL     OW 7485   3.179   2.698   3.106 -0.5323  0.2084  0.0168
    1SOL    HW2 7486   3.169   2.697   3.201 -0.6379 -1.4412  0.0094
    1SOL    HW3 7487   3.166   2.607   3.080 -0.7466  0.6873 -1.6048
    1SOL    MW4 7488   3.176   2.686   3.115 -0.5746  0.0539 -0.1979
    1SOL     OW 7489   3.399   2.847   3.003 -0.2663  0.1270  0.4975
    1SOL    HW2 7490   3.398   2.929   3.051  0.7720  0.2148  0.3778
    1SOL    HW3 7491   3.328   2.796   3.041 -1.5269  1.4344 -0.0720
    1SOL    MW4 7492   3.389   2.851   3.014 -0.2956  0.3111  0.4065
    1SOL     OW 7493   3.406   3.088   3.115  0.1297 -0.1370  0.2954
    1SOL    HW2 7494   3.408   3.096   3.210 -0.6905  2.2889  0.1407
    1SOL    HW3 7495   3.324   3.130   3.089  0.8374  0.1453 -1.5424
    1SOL    MW4 7496   3.396   3.095   3.124  0.1149  0.2203  0.0324
    1SOL     OW 7497   3.164   3.223   3.016 -0.1306  0.1062  0.7936
    1SOL    HW2 7498   3.092   3.167   3.044  0.2821 -0.8722 -0.0688
    1SOL    HW3 7499   3.160   3.222   2.921  0.7682  0.3696  0.7430
    1SOL    MW4 7500   3.154   3.216   3.008  0.0427  0.0119  0.6731
    1SOL     OW 7501   3.148   3.505   3.069  0.0947  0.3558 -0.1264
    1SOL    HW2 7502   3.230   3.546   3.042  0.4815 -0.6272 -0.4553
    1SOL    HW3 7503   3.148   3.421   3.025 -1.1830  0.4245 -0.2681
    1SOL    MW4 7504   3.159   3.500   3.059 -0.0231  0.2351 -0.1884
    1SOL     OW 7505   3.382   3.621   2.990 -0.1753 -0.0295 -0.9100
    1SOL    HW2 7506   3.458   3.585   3.036 -0.7829 -1.0356 -0.6638
    1SOL    HW3 7507   3.380   3.713   3.014  1.5304  0.2342 -1.6850
    1SOL    MW4 7508   3.392   3.628   2.999 -0.0303 -0.1276 -0.9797
    1SOL     OW 7509   3.363   3.859   3.107 -0.0286 -0.3309  0.1999
    1SOL    HW2 7510   3.371   3.853   3.202 -2.7136 -1.4186  0.3960
    1SOL    HW3 7511   3.291   3.920   3.092 -0.5156 -1.1867 -1.1010
    1SOL    MW4 7512   3.354   3.866   3.117 -0.4473 -0.5872  0.0541
    1SOL     OW 7513   3.150   4.013   3.044  0.1499 -0.7814 -0.5010
    1SOL    HW2 7514   3.067   3.972   3.070 -0.2934  0.7027  0.4687
    1SOL    HW3 7515   3.153   4.003   2.949 -0.7878 -1.5119 -0.4601
    1SOL    MW4 7516   3.139   4.006   3.035 -0.0322 -0.6824 -0.3676
    1SOL     OW 7517   3.160   4.300   3.086  0.1095 -0.0574 -0.3511
    1SOL    HW2 7518   3.156   4.300   3.182  0.9021 -0.9367 -0.3125
    1SOL    HW3 7519   3.158   4.208   3.062  0.5483  0.1421 -1.1628
    1SOL    MW4 7520   3.159   4.288   3.096  0.2720 -0.1469 -0.4530
    1SOL     OW 7521   3.375   4.423   2.982  0.0456  0.2200  0.0798
    1SOL    HW2 7522   3.435   4.362   3.027 -0.7993 -1.5426 -1.1082
    1SOL    HW3 7523   3.288   4.392   3.006 -0.3949  1.1110 -0.3606
    1SOL    MW4 7524   3.372   4.411   2.991 -0.1240  0.1049 -0.1352
    1SOL     OW 7525   3.794   4.633   3.183 -0.4834 -0.5418 -0.1193
    1SOL    HW2 7526   3.809   4.548   3.141 -0.6447  0.1835 -1.6551
    1SOL    HW3 7527   3.721   4.672   3.134 -0.4068  0.4951  0.5745
    1SOL    MW4 7528   3.786   4.627   3.171 -0.4945 -0.3090 -0.2306
    1SOL     OW 7529   3.628   0.109   3.011 -0.0757  0.1458 -0.0792
    1SOL    HW2 7530   3.635   0.203   3.021  1.2866  0.0099  0.2781
    1SOL    HW3 7531   3.614   0.096   2.917 -0.1139  0.6898 -0.1497
    1SOL    MW4 7532   3.627   0.119   3.000  0.0989  0.1996 -0.0412
    1SOL     OW 7533   3.594   0.368   3.053 -0.3182  0.0074  0.3301
    1SOL    HW2 7534   3.588   0.373   3.148 -0.9061  1.2786  0.2364
    1SOL    HW3 7535   3.676   0.413   3.032  0.8989 -2.1314  0.3717
    1SOL    MW4 7536   3.604   0.375   3.063 -0.2353 -0.1071  0.3233
    1SOL     OW 7537   3.833   0.491   3.003  0.4502 -0.0994 -0.6477
    1SOL    HW2 7538   3.892   0.461   3.072 -3.6502 -1.5115  2.4483
    1SOL    HW3 7539   3.808   0.579   3.029 -0.3378 -0.2540 -0.8720
    1SOL    MW4 7540   3.838   0.499   3.016 -0.1945 -0.3061 -0.2687
    1SOL     OW 7541   3.770   0.736   3.101  0.2275  0.4435  0.0567
    1SOL    HW2 7542   3.770   0.722   3.196  0.4082  1.0901  0.1554
    1SOL    HW3 7543   3.844   0.794   3.085 -1.3645  2.4743 -0.1530
    1SOL    MW4 7544   3.780   0.742   3.111  0.0412  0.7967  0.0420
    1SOL     OW 7545   3.583   0.918   3.007  0.0806 -0.3606  0.1134
    1SOL    HW2 7546   3.657   0.877   3.052 -1.0712 -0.2768  2.1421
    1SOL    HW3 7547   3.507   0.869   3.038 -0.9781  1.2311  0.0506
    1SOL    MW4 7548   3.583   0.906   3.017 -0.2110 -0.1395  0.3726
    1SOL     OW 7549   3.582   1.199   3.120 -0.0448 -0.5452 -0.1181
    1SOL    HW2 7550   3.656   1.235   3.070 -0.0738 -0.4873 -0.1198
    1SOL    HW3 7551   3.571   1.111   3.086 -0.6639 -0.1808 -0.8690
    1SOL    MW4 7552   3.590   1.192   3.109 -0.1304 -0.4894 -0.2172
    1SOL     OW 7553   3.815   1.294   2.989 -0.2871 -0.2200 -0.0663
    1SOL    HW2 7554   3.799   1.382   3.024  0.7930  0.0845 -0.3227
    1SOL    HW3 7555   3.825   1.307   2.895  1.0170 -0.4463  0.0286
    1SOL    MW4 7556   3.815   1.308   2.982  0.0277 -0.2096 -0.0875
    1SOL     OW 7557   3.753   1.544   3.139  0.2806 -0.4791  0.1685
    1SOL    HW2 7558   3.771   1.541   3.233  0.9894  0.6415  0.0833
    1SOL    HW3 7559   3.675   1.598   3.131 -0.9719 -2.2251  0.2468
    1SOL    MW4 7560   3.745   1.551   3.150  0.2089 -0.5616  0.1674
    1SOL     OW 7561   3.514   1.676   3.030  0.1269 -0.0211  0.3137
    1SOL    HW2 7562   3.529   1.767   3.056 -0.4542 -0.1510  1.1309
    1SOL    HW3 7563   3.538   1.674   2.937 -1.3202  1.3407 -0.1283
    1SOL    MW4 7564   3.519   1.688   3.021 -0.1409  0.1415  0.3633
    1SOL     OW 7565   3.573   1.944   3.099  0.4678 -0.1352  0.1020
    1SOL    HW2 7566   3.579   1.952   3.194 -0.2881  2.8988 -0.0605
    1SOL    HW3 7567   3.654   1.984   3.066 -0.1504  0.5752 -0.5728
    1SOL    MW4 7568   3.585   1.950   3.107  0.2866  0.3589 -0.0083
    1SOL     OW 7569   3.812   2.040   2.986 -0.7397 -0.1878  0.0446
    1SOL    HW2 7570   3.806   2.127   3.025 -0.0427 -0.2516  0.3177
    1SOL    HW3 7571   3.785   2.051   2.895 -0.4655  0.3560  0.0288
    1SOL    MW4 7572   3.808   2.053   2.979 -0.6118 -0.1247  0.0787
    1SOL     OW 7573   3.801   2.290   3.083 -0.1641 -0.4276 -0.0710
    1SOL    HW2 7574   3.801   2.306   3.177  1.7873 -0.4402 -0.0424
    1SOL    HW3 7575   3.723   2.336   3.050  1.0922  2.6419  1.0735
    1SOL    MW4 7576   3.791   2.299   3.091  0.2589 -0.0243  0.0837
    1SOL     OW 7577   3.609   2.446   2.961  0.1927  0.4019 -0.2841
    1SOL    HW2 7578   3.609   2.533   3.001  0.2927 -0.7100  2.2697
    1SOL    HW3 7579   3.528   2.406   2.992  0.0042 -0.3262 -1.6826
    1SOL    MW4 7580   3.598   2.452   2.970  0.1810  0.1590 -0.1318
    1SOL     OW 7581   3.616   2.705   3.110  0.3846 -0.1344 -0.4436
    1SOL    HW2 7582   3.699   2.737   3.074 -0.2631  1.1712 -0.8102
    1SOL    HW3 7583   3.549   2.753   3.062 -0.5145  1.8271  2.6633
    1SOL    MW4 7584   3.618   2.715   3.099  0.1807  0.2966 -0.0820
    1SOL     OW 7585   3.834   2.836   2.994 -0.3980 -0.0554  0.1180
    1SOL    HW2 7586   3.837   2.927   3.024 -0.6085 -0.1070  0.2998
    1SOL    HW3 7587   3.826   2.842   2.899 -0.2963  0.1139  0.1195
    1SOL    MW4 7588   3.834   2.849   2.986 -0.4122 -0.0396  0.1421
    1SOL     OW 7589   3.839   3.100   3.072 -0.5434  0.6889  0.1159
    1SOL    HW2 7590   3.917   3.150   3.048 -1.0822  0.9042 -1.2300
    1SOL    HW3 7591   3.766   3.155   3.044 -1.1432 -1.1628 -2.1760
    1SOL    MW4 7592   3.840   3.114   3.065 -0.6938  0.4730 -0.3641
    1SOL     OW 7593   3.602   3.251   3.025  0.0344  0.0104 -0.1358
    1SOL    HW2 7594   3.530   3.192   3.048 -0.6877  0.7448 -0.4983
    1SOL    HW3 7595   3.599   3.257   2.930  1.8242 -1.5065 -0.3103
    1SOL    MW4 7596   3.592   3.244   3.016  0.1752 -0.0927 -0.2069
    1SOL     OW 7597   3.621   3.510   3.112  0.0724  0.2609  0.1482
    1SOL    HW2 7598   3.704   3.542   3.077  0.3547  0.9957  1.4847
    1SOL    HW3 7599   3.613   3.421   3.077  1.1615  0.3788 -0.4111
    1SOL    MW4 7600   3.631   3.503   3.102  0.2532  0.3736  0.2506
    1SOL     OW 7601   3.857   3.629   3.032  0.1887 -0.3060  0.3308
    1SOL    HW2 7602   3.869   3.719   3.061  1.8007 -0.1726 -0.6819
    1SOL    HW3 7603   3.841   3.636   2.938  0.1977 -1.0638  0.2678
    1SOL    MW4 7604   3.857   3.642   3.023  0.4027 -0.3884  0.1888
    1SOL     OW 7605   3.830   3.893   3.105 -0.2358  0.0072 -0.1094
    1SOL    HW2 7606   3.843   3.888   3.200  0.2557  0.2832 -0.1617
    1SOL    HW3 7607   3.744   3.934   3.095  0.1272  0.8454  0.2095
    1SOL    MW4 7608   3.820   3.898   3.116 -0.1230  0.1543 -0.0739
    1SOL     OW 7609   3.589   4.023   3.055  0.0570  0.2253  0.1668
    1SOL    HW2 7610   3.514   3.976   3.090 -0.8589  0.6636 -1.1785
    1SOL    HW3 7611   3.574   4.027   2.960  1.4980  0.7855 -0.0566
    1SOL    MW4 7612   3.577   4.017   3.047  0.1261  0.3572 -0.0403
    1SOL     OW 7613   3.570   4.288   3.105 -0.0037  0.5607  0.0530
    1SOL    HW2 7614   3.652   4.316   3.064 -0.2792  0.2865 -0.6770
    1SOL    HW3 7615   3.568   4.193   3.091  0.2646  0.3552  1.3403
    1SOL    MW4 7616   3.581   4.279   3.098 -0.0048  0.4969  0.1264
    1SOL     OW 7617   3.788   4.408   2.984  0.4260 -0.0124 -0.3074
    1SOL    HW2 7618   3.873   4.373   3.010  0.9041  0.9089 -0.6066
    1SOL    HW3 7619   3.799   4.431   2.892  0.0949  0.8124 -0.1487
    1SOL    MW4 7620   3.801   4.407   2.975  0.4451  0.2179 -0.3257
    1SOL     OW 7621   4.280   4.629   3.117 -0.2527  0.2906  0.3366
    1SOL    HW2 7622   4.283   4.627   3.212  0.2915 -0.2053  0.3106
    1SOL    HW3 7623   4.290   4.538   3.090  0.5124  0.5267 -0.2140
    1SOL    MW4 7624   4.282   4.617   3.126 -0.0801  0.2565  0.2608
    1SOL     OW 7625   4.009   0.120   3.060  0.3989 -0.1520  0.5113
    1SOL    HW2 7626   4.083   0.061   3.071  0.3337 -0.2758  0.2964
    1SOL    HW3 7627   3.935   0.074   3.099  0.6521  0.4262  1.6749
    1SOL    MW4 7628   4.009   0.106   3.066  0.4239 -0.0920  0.6363
    1SOL     OW 7629   4.044   0.376   3.174  0.4268  0.1210  0.2776
    1SOL    HW2 7630   4.113   0.427   3.132  0.9672 -0.2214  0.7349
    1SOL    HW3 7631   4.049   0.290   3.131 -0.0615  0.2551 -0.0511
    1SOL    MW4 7632   4.054   0.371   3.163  0.4344  0.0936  0.2944
    1SOL     OW 7633   4.242   0.508   3.031  0.2158  0.0726 -0.2712
    1SOL    HW2 7634   4.243   0.600   3.057  1.3119  0.0120 -0.0976
    1SOL    HW3 7635   4.272   0.509   2.940  0.0005 -0.0879 -0.3424
    1SOL    MW4 7636   4.246   0.520   3.023  0.3319  0.0435 -0.2575
    1SOL     OW 7637   4.257   0.765   3.116 -0.1067 -0.9587 -0.3099
    1SOL    HW2 7638   4.171   0.795   3.088  0.2362 -0.8921 -1.3225
    1SOL    HW3 7639   4.318   0.826   3.075  0.3123  0.8257  2.7877
    1SOL    MW4 7640   4.254   0.777   3.107 -0.0067 -0.7145 -0.0348
    1SOL     OW 7641   4.010   0.890   3.017 -0.0126 -0.3790  0.4263
    1SOL    HW2 7642   4.039   0.976   3.047  0.0751 -0.9302  1.9451
    1SOL    HW3 7643   4.012   0.896   2.921 -0.7947  1.5597  0.5171
    1SOL    MW4 7644   4.014   0.902   3.008 -0.1040 -0.1959  0.6385
    1SOL     OW 7645   4.009   1.144   3.111 -0.3541 -0.3375  0.2901
    1SOL    HW2 7646   3.973   1.143   3.200  0.0190  1.6135  0.4795
    1SOL    HW3 7647   3.938   1.179   3.058 -0.0428 -0.0657  0.0553
    1SOL    MW4 7648   3.995   1.148   3.116 -0.2637 -0.0441  0.2844
    1SOL     OW 7649   4.237   1.276   3.025  0.0254 -0.3338 -0.6917
    1SOL    HW2 7650   4.153   1.238   3.052  0.4101  0.3917  1.6450
    1SOL    HW3 7651   4.246   1.252   2.932 -2.5815 -0.7165 -0.8731
    1SOL    MW4 7652   4.227   1.267   3.016 -0.2675 -0.2886 -0.4075
    1SOL     OW 7653   4.211   1.539   3.118  0.4580  0.3058 -0.1835
    1SOL    HW2 7654   4.124   1.572   3.094  0.5003  0.2813 -0.3767
    1SOL    HW3 7655   4.211   1.448   3.088 -0.1611 -0.2990  1.6204
    1SOL    MW4 7656   4.199   1.531   3.111  0.3824  0.2226  0.0291
    1SOL     OW 7657   3.969   1.660   3.011  0.1356 -0.1094 -0.6921
    1SOL    HW2 7658   3.976   1.745   3.053  1.2929 -0.3015 -0.4986
    1SOL    HW3 7659   3.887   1.624   3.045 -0.6694  1.1710 -1.2426
    1SOL    MW4 7660   3.959   1.666   3.021  0.1824  0.0342 -0.7393
    1SOL     OW 7661   4.031   1.913   3.139  0.3504 -0.1058  0.0016
    1SOL    HW2 7662   4.110   1.953   3.100  0.1564 -0.4195 -0.7255
    1SOL    HW3 7663   3.959   1.959   3.097  0.1443  0.1953  0.6857
    1SOL    MW4 7664   4.032   1.925   3.128  0.2980 -0.1074 -0.0041
    1SOL     OW 7665   4.247   2.055   3.045  0.2901 -0.0404  0.0145
    1SOL    HW2 7666   4.249   2.144   3.079  0.9843  0.0236 -0.1792
    1SOL    HW3 7667   4.243   2.066   2.950 -0.3478 -0.2157  0.0217
    1SOL    MW4 7668   4.247   2.068   3.037  0.2971 -0.0551 -0.0100
    1SOL     OW 7669   4.251   2.295   3.158 -0.2481  0.3098  0.7715
    1SOL    HW2 7670   4.174   2.334   3.117 -0.2191  0.1416  0.5557
    1SOL    HW3 7671   4.324   2.348   3.127 -0.0429 -0.7904 -0.6766
    1SOL    MW4 7672   4.251   2.307   3.149 -0.2174  0.1426  0.5522
    1SOL     OW 7673   4.042   2.396   2.992  0.4100  0.2718  0.4494
    1SOL    HW2 7674   4.035   2.480   3.037  0.0431 -0.6463  2.1408
    1SOL    HW3 7675   3.964   2.347   3.020  0.2292 -0.3572 -1.1029
    1SOL    MW4 7676   4.030   2.400   3.001  0.3381  0.0677  0.4678
    1SOL     OW 7677   4.032   2.657   3.098  0.0263 -0.0272 -0.7036
    1SOL    HW2 7678   4.032   2.671   3.193  1.0144  2.2817 -1.0234
    1SOL    HW3 7679   3.964   2.715   3.065 -0.4075 -0.9242 -1.4203
    1SOL    MW4 7680   4.023   2.666   3.106  0.0997  0.1593 -0.8404
    1SOL     OW 7681   4.256   2.773   2.972  0.0655  0.1209 -0.4290
    1SOL    HW2 7682   4.185   2.718   3.006  0.8149 -0.4095  0.2949
    1SOL    HW3 7683   4.330   2.755   3.030  0.2048  2.1896  0.0601
    1SOL    MW4 7684   4.256   2.763   2.984  0.1831  0.3240 -0.2687
    1SOL     OW 7685   4.257   3.054   3.114 -0.4864 -0.4840  0.8025
    1SOL    HW2 7686   4.188   3.111   3.082  0.6388  0.5298  0.1316
    1SOL    HW3 7687   4.236   2.968   3.078 -0.0978  0.3155 -1.4261
    1SOL    MW4 7688   4.245   3.050   3.105 -0.2861 -0.2449  0.4199
    1SOL     OW 7689   4.085   3.236   3.002  0.2561  0.3851 -0.0205
    1SOL    HW2 7690   4.103   3.328   3.021  0.8298  0.1264  0.7128
    1SOL    HW3 7691   4.077   3.232   2.907 -0.0357  1.2396 -0.0332
    1SOL    MW4 7692   4.086   3.248   2.992  0.2937  0.4640  0.0746
    1SOL     OW 7693   4.099   3.483   3.094 -0.0098  0.0391 -0.0343
    1SOL    HW2 7694   4.088   3.491   3.189  0.2870 -0.1299  0.0158
    1SOL    HW3 7695   4.022   3.526   3.057 -0.0166  0.2990  0.2803
    1SOL    MW4 7696   4.087   3.490   3.102  0.0281  0.0510  0.0136
    1SOL     OW 7697   4.269   3.658   2.974  0.1604 -0.2868  0.0798
    1SOL    HW2 7698   4.268   3.741   3.023  0.5613  0.0792 -0.5246
    1SOL    HW3 7699   4.205   3.603   3.019  1.1018 -0.2405  1.5159
    1SOL    MW4 7700   4.260   3.662   2.986  0.3376 -0.2322  0.1895
    1SOL     OW 7701   4.246   3.895   3.107 -0.2182  0.6111  0.4907
    1SOL    HW2 7702   4.170   3.940   3.069 -0.1999 -0.7646 -1.2726
    1SOL    HW3 7703   4.321   3.941   3.071 -0.2080 -0.1686 -0.5087
    1SOL    MW4 7704   4.246   3.907   3.097 -0.2141  0.3266  0.1261
    1SOL     OW 7705   4.043   4.053   3.014  0.3660 -0.7074 -0.0514
    1SOL    HW2 7706   4.023   4.145   3.033 -0.9829 -0.9454 -0.2328
    1SOL    HW3 7707   3.969   4.005   3.052  1.1746 -1.7305  0.2263
    1SOL    MW4 7708   4.030   4.059   3.021  0.2956 -0.8740 -0.0389
    1SOL     OW 7709   4.021   4.313   3.098  0.2265  0.0929 -0.2418
    1SOL    HW2 7710   4.024   4.306   3.194 -0.1077  3.1003  0.0133
    1SOL    HW3 7711   4.108   4.344   3.073 -0.6130  2.2458 -0.6086
    1SOL    MW4 7712   4.033   4.316   3.108  0.0720  0.7734 -0.2563
    1SOL     OW 7713   4.282   4.373   2.991  0.2338  0.0635  0.2342
    1SOL    HW2 7714   4.367   4.345   3.024  0.3269 -0.7481 -0.6660
    1SOL    HW3 7715   4.299   4.402   2.901 -0.5597 -0.7877 -0.1987
    1SOL    MW4 7716   4.295   4.373   2.983  0.1411 -0.1559  0.0587
    1SOL     OW 7717   0.194   4.651   3.358 -0.3714 -0.1212 -0.2277
    1SOL    HW2 7718   0.273   4.693   3.392 -0.7158 -0.3069  0.8153
    1SOL    HW3 7719   0.192   4.565   3.400 -0.0313 -0.9413 -1.8459
    1SOL    MW4 7720   0.204   4.645   3.368 -0.3720 -0.2542 -0.3035
    1SOL     OW 7721   4.465   0.117   3.490 -0.5657  0.1550  0.3053
    1SOL    HW2 7722   4.468   0.205   3.453 -1.1314  0.5147  1.1025
    1SOL    HW3 7723   4.544   0.074   3.456  0.2906  1.3151  0.7800
    1SOL    MW4 7724   4.476   0.123   3.481 -0.5274  0.3555  0.4733
    1SOL     OW 7725   0.028   0.372   3.408 -0.0293 -0.0873 -0.2129
    1SOL    HW2 7726  -0.047   0.422   3.441  0.8734  1.6045 -0.6913
    1SOL    HW3 7727   0.104   0.418   3.443  0.8493 -0.4307 -1.6586
    1SOL    MW4 7728   0.028   0.384   3.417  0.2058  0.0906 -0.4671
    1SOL     OW 7729   0.246   0.518   3.507  0.4333 -0.0617 -0.2557
    1SOL    HW2 7730   0.291   0.462   3.444 -0.6606 -0.4518 -0.6985
    1SOL    HW3 7731   0.237   0.602   3.463  0.1443 -0.1801 -0.4282
    1SOL    MW4 7732   0.250   0.521   3.493  0.2509 -0.1288 -0.3369
    1SOL     OW 7733   0.196   0.771   3.376  0.2564 -0.7591  0.3834
    1SOL    HW2 7734   0.270   0.819   3.414 -0.3576  0.6703 -0.1967
    1SOL    HW3 7735   0.119   0.820   3.404 -0.3530 -1.1383 -0.6076
    1SOL    MW4 7736   0.196   0.784   3.385  0.0950 -0.6206  0.1760
    1SOL     OW 7737   4.451   0.884   3.523 -0.2303 -0.0973  0.0429
    1SOL    HW2 7738   4.448   0.863   3.616  0.3459 -1.4205 -0.2247
    1SOL    HW3 7739   4.466   0.979   3.520 -1.1336  0.0887  1.2842
    1SOL    MW4 7740   4.453   0.894   3.535 -0.2732 -0.2474  0.1717
    1SOL     OW 7741   4.460   1.148   3.443 -0.4743 -0.5562  0.0854
    1SOL    HW2 7742   4.534   1.204   3.466 -1.1499 -0.2017  1.4528
    1SOL    HW3 7743   4.460   1.146   3.348  0.3294  0.7451  0.0491
    1SOL    MW4 7744   4.470   1.155   3.434 -0.4578 -0.3378  0.2611
    1SOL     OW 7745   0.172   1.306   3.509  0.0200  0.0265  0.2744
    1SOL    HW2 7746   0.253   1.272   3.471 -0.3559 -0.6100  0.0391
    1SOL    HW3 7747   0.168   1.397   3.478  0.2199 -0.1881 -0.4017
    1SOL    MW4 7748   0.182   1.314   3.500 -0.0032 -0.0858  0.1540
    1SOL     OW 7749   0.218   1.570   3.371  0.6589  0.4064  0.0239
    1SOL    HW2 7750   0.307   1.586   3.404  0.4525  2.1937 -0.1981
    1SOL    HW3 7751   0.231   1.531   3.285  1.2483  1.5002 -0.3957
    1SOL    MW4 7752   0.232   1.567   3.364  0.7094  0.7864 -0.0608
    1SOL     OW 7753   0.003   1.703   3.468 -0.1755 -0.5066 -0.0357
    1SOL    HW2 7754  -0.068   1.641   3.448  1.2321 -1.7785 -1.2370
    1SOL    HW3 7755   0.083   1.657   3.441  1.0587  1.1499  0.7178
    1SOL    MW4 7756   0.004   1.689   3.462  0.1731 -0.4559 -0.0949
    1SOL     OW 7757   4.488   1.948   3.356 -0.1882 -0.5211 -0.1780
    1SOL    HW2 7758   4.483   1.864   3.402 -1.7089  0.1799  0.9703
    1SOL    HW3 7759   4.486   1.925   3.263  0.5678 -1.8114  0.1120
    1SOL    MW4 7760   4.487   1.934   3.350 -0.2891 -0.5990  0.0119
    1SOL     OW 7761   0.274   2.033   3.472  0.1380 -0.1896 -0.1694
    1SOL    HW2 7762   0.267   2.035   3.568  0.6563  0.7975 -0.1451
    1SOL    HW3 7763   0.192   1.993   3.443  0.3853 -1.3737  0.7349
    1SOL    MW4 7764   0.262   2.028   3.481  0.2390 -0.2155 -0.0467
    1SOL     OW 7765   0.258   2.308   3.384  0.4954 -0.1928  0.3309
    1SOL    HW2 7766   0.192   2.330   3.450  1.1054  0.2570  0.7947
    1SOL    HW3 7767   0.268   2.213   3.392 -1.0763 -0.4585 -0.6748
    1SOL    MW4 7768   0.251   2.298   3.394  0.3685 -0.1683  0.2599
    1SOL     OW 7769   0.046   2.466   3.499  0.2246  0.8236  0.0590
    1SOL    HW2 7770   0.030   2.470   3.594 -0.4405  1.7002 -0.0884
    1SOL    HW3 7771  -0.037   2.434   3.463  0.9787 -1.0327 -0.0908
    1SOL    MW4 7772   0.033   2.462   3.507  0.2365  0.6945  0.0198
    1SOL     OW 7773   0.042   2.727   3.412 -0.0990 -0.0442 -0.0417
    1SOL    HW2 7774   0.112   2.772   3.460 -1.1216  0.6611  0.8306
    1SOL    HW3 7775   0.044   2.637   3.445  0.1485  0.0730  0.2688
    1SOL    MW4 7776   0.051   2.721   3.423 -0.2013  0.0644  0.1147
    1SOL     OW 7777   0.257   2.872   3.515  0.0478  0.0130  0.2536
    1SOL    HW2 7778   0.331   2.825   3.475  0.5418  0.7246  0.3326
    1SOL    HW3 7779   0.250   2.953   3.464 -0.9150 -0.2139  0.0074
    1SOL    MW4 7780   0.266   2.876   3.503 -0.0140  0.0770  0.2315
    1SOL     OW 7781   0.244   3.111   3.382  0.3580 -0.3920  0.6072
    1SOL    HW2 7782   0.175   3.166   3.420 -0.2273 -1.0437  0.4932
    1SOL    HW3 7783   0.224   3.108   3.289  0.3940 -0.7828  0.6097
    1SOL    MW4 7784   0.232   3.118   3.375  0.2855 -0.5298  0.5927
    1SOL     OW 7785   0.039   3.253   3.479 -0.2783  0.0304  0.1545
    1SOL    HW2 7786  -0.039   3.207   3.448 -1.5339  1.7270  0.6938
    1SOL    HW3 7787   0.032   3.341   3.441  2.7216 -0.5450 -1.8938
    1SOL    MW4 7788   0.028   3.259   3.470 -0.0482  0.1781 -0.0448
    1SOL     OW 7789   0.036   3.516   3.378  0.3136 -0.3251  0.1257
    1SOL    HW2 7790  -0.041   3.561   3.414  0.8039  0.3884  0.3025
    1SOL    HW3 7791   0.015   3.502   3.286  0.5217  1.1110 -0.1519
    1SOL    MW4 7792   0.023   3.520   3.371  0.4058 -0.0415  0.1125
    1SOL     OW 7793   0.277   3.626   3.488  0.0515  0.4155  0.0761
    1SOL    HW2 7794   0.272   3.609   3.582  1.0650 -0.5911 -0.0467
    1SOL    HW3 7795   0.194   3.594   3.453 -0.3062  0.7544  0.6203
    1SOL    MW4 7796   0.265   3.619   3.496  0.1381  0.3273  0.1316
    1SOL     OW 7797   0.200   3.863   3.337 -0.1634 -0.2594 -0.6597
    1SOL    HW2 7798   0.117   3.900   3.367  0.4693  1.0351 -0.4802
    1SOL    HW3 7799   0.216   3.790   3.397 -0.6736  0.1154 -0.0559
    1SOL    MW4 7800   0.191   3.858   3.349 -0.1473 -0.0393 -0.5560
    1SOL     OW 7801   4.463   3.937   3.494  0.1941  0.2625  0.3100
    1SOL    HW2 7802   4.473   3.943   3.589  2.2269  1.4789  0.0493
    1SOL    HW3 7803   4.441   4.026   3.467  2.1565  0.4888 -0.6058
    1SOL    MW4 7804   4.461   3.950   3.503  0.7210  0.4528  0.1547
    1SOL     OW 7805   4.445   4.211   3.411  0.1261  0.1206 -0.8193
    1SOL    HW2 7806   4.364   4.256   3.432 -0.5278 -0.1068 -2.7639
    1SOL    HW3 7807   4.514   4.269   3.445 -0.8430 -0.2644  1.9024
    1SOL    MW4 7808   4.444   4.225   3.419 -0.0882  0.0396 -0.7169
    1SOL     OW 7809   0.169   4.381   3.462  0.2082  0.2791  0.2160
    1SOL    HW2 7810   0.181   4.382   3.557  0.5779 -0.4569  0.1856
    1SOL    HW3 7811   0.252   4.348   3.428  1.3225  3.7990 -0.5887
    1SOL    MW4 7812   0.181   4.377   3.470  0.4040  0.6466  0.1059
    1SOL     OW 7813   0.664   4.641   3.413  0.1330  0.0615 -0.1048
    1SOL    HW2 7814   0.732   4.696   3.452  0.0267  0.3059 -0.2637
    1SOL    HW3 7815   0.672   4.656   3.319 -0.3969  0.3904 -0.0997
    1SOL    MW4 7816   0.674   4.651   3.406  0.0491  0.1373 -0.1249
    1SOL     OW 7817   0.419   0.110   3.446 -0.2274  0.1367 -0.3522
    1SOL    HW2 7818   0.431   0.117   3.541  0.0806  0.3389 -0.4024
    1SOL    HW3 7819   0.501   0.071   3.415 -0.0226  0.7592 -0.6169
    1SOL    MW4 7820   0.432   0.106   3.455 -0.1597  0.2455 -0.3936
    1SOL     OW 7821   0.442   0.378   3.364  0.0233 -0.0215  0.5780
    1SOL    HW2 7822   0.514   0.410   3.418  0.8639 -0.7521 -0.0966
    1SOL    HW3 7823   0.435   0.285   3.387  0.5790 -0.4068 -0.7822
    1SOL    MW4 7824   0.451   0.370   3.375  0.2075 -0.1687  0.3095
    1SOL     OW 7825   0.666   0.501   3.501 -0.1773  0.1531  0.0355
    1SOL    HW2 7826   0.663   0.481   3.595 -2.5122 -0.4252 -0.1291
    1SOL    HW3 7827   0.744   0.455   3.469  0.5159  0.1909  1.6514
    1SOL    MW4 7828   0.676   0.492   3.509 -0.3939  0.0817  0.2267
    1SOL     OW 7829   0.650   0.762   3.398  0.2531 -0.3066 -0.1439
    1SOL    HW2 7830   0.565   0.798   3.423  0.3777  0.6051 -0.9969
    1SOL    HW3 7831   0.654   0.677   3.441 -1.6831 -0.9662 -1.2202
    1SOL    MW4 7832   0.640   0.755   3.407  0.0141 -0.2734 -0.3984
    1SOL     OW 7833   0.417   0.895   3.486  0.3203  0.1223 -0.2025
    1SOL    HW2 7834   0.430   0.895   3.581 -1.5625 -0.3624  0.0772
    1SOL    HW3 7835   0.413   0.988   3.463  0.1130  0.2426  0.2999
    1SOL    MW4 7836   0.418   0.907   3.496  0.0445  0.0742 -0.0997
    1SOL     OW 7837   0.410   1.178   3.406 -0.1976  0.0298 -0.3981
    1SOL    HW2 7838   0.492   1.221   3.433 -0.4543 -0.5328  1.3274
    1SOL    HW3 7839   0.412   1.182   3.310  1.5609  0.5674 -0.3687
    1SOL    MW4 7840   0.421   1.184   3.397  0.0005  0.0265 -0.1667
    1SOL     OW 7841   0.644   1.302   3.499  0.6161  0.2222  0.0451
    1SOL    HW2 7842   0.721   1.256   3.467  0.5158  1.0526 -1.4643
    1SOL    HW3 7843   0.655   1.392   3.467  0.4157  1.0564  2.2452
    1SOL    MW4 7844   0.655   1.308   3.490  0.5764  0.4419  0.1361
    1SOL     OW 7845   0.684   1.544   3.387 -0.1271  0.1821 -0.0832
    1SOL    HW2 7846   0.750   1.597   3.433  0.4079  0.7982 -1.5335
    1SOL    HW3 7847   0.600   1.582   3.415  0.1717  0.3277  0.6475
    1SOL    MW4 7848   0.682   1.556   3.397 -0.0170  0.2825 -0.1783
    1SOL     OW 7849   0.452   1.638   3.493  0.2484 -0.4089  0.6403
    1SOL    HW2 7850   0.463   1.660   3.585  1.9070  1.0154  0.1212
    1SOL    HW3 7851   0.465   1.721   3.446  0.1585 -1.2564 -0.9304
    1SOL    MW4 7852   0.455   1.652   3.499  0.4554 -0.3328  0.3643
    1SOL     OW 7853   0.511   1.890   3.392  0.3364  0.2421 -0.0585
    1SOL    HW2 7854   0.449   1.946   3.439 -0.0190 -0.2206  0.0393
    1SOL    HW3 7855   0.505   1.918   3.301  0.3173  0.5042  0.0248
    1SOL    MW4 7856   0.502   1.901   3.386  0.2869  0.2158 -0.0346
    1SOL     OW 7857   0.735   2.036   3.492 -0.7015  0.2354 -0.1120
    1SOL    HW2 7858   0.724   2.028   3.587 -0.3872  0.5473 -0.0491
    1SOL    HW3 7859   0.661   1.987   3.455 -0.8574  0.1649  0.2926
    1SOL    MW4 7860   0.724   2.028   3.499 -0.6806  0.2673 -0.0503
    1SOL     OW 7861   0.712   2.309   3.400  0.0995  0.0703 -0.0432
    1SOL    HW2 7862   0.787   2.360   3.431 -0.4456  0.2931  0.9334
    1SOL    HW3 7863   0.723   2.223   3.440  0.8306 -0.4937 -1.4131
    1SOL    MW4 7864   0.723   2.305   3.409  0.1240  0.0253 -0.0951
    1SOL     OW 7865   0.479   2.442   3.482  0.0979  0.0434  0.1872
    1SOL    HW2 7866   0.559   2.397   3.455  0.1963  0.1240  0.3493
    1SOL    HW3 7867   0.409   2.380   3.459  0.1589  0.2324 -0.5256
    1SOL    MW4 7868   0.480   2.428   3.475  0.1190  0.0789  0.1149
    1SOL     OW 7869   0.484   2.708   3.411  0.2229 -0.2820 -0.4954
    1SOL    HW2 7870   0.473   2.614   3.425 -1.3606 -0.1821 -0.9253
    1SOL    HW3 7871   0.483   2.717   3.315 -0.0112  0.2097 -0.4444
    1SOL    MW4 7872   0.482   2.696   3.400 -0.0169 -0.2041 -0.5455
    1SOL     OW 7873   0.687   2.864   3.522  0.2457 -0.3025 -0.0548
    1SOL    HW2 7874   0.755   2.801   3.500  0.0057 -0.6792  0.2836
    1SOL    HW3 7875   0.607   2.828   3.483  0.1640 -0.0566 -0.1184
    1SOL    MW4 7876   0.685   2.851   3.514  0.2033 -0.3195 -0.0184
    1SOL     OW 7877   0.707   3.108   3.392  0.4338  0.2904 -0.1416
    1SOL    HW2 7878   0.628   3.145   3.432  0.2972  0.8557 -0.9344
    1SOL    HW3 7879   0.715   3.021   3.431 -0.2784  0.4408  0.3475
    1SOL    MW4 7880   0.698   3.102   3.403  0.3218  0.3848 -0.1817
    1SOL     OW 7881   0.478   3.231   3.501 -0.2759 -0.3830  0.1732
    1SOL    HW2 7882   0.470   3.213   3.594  0.2144 -1.5169 -0.0021
    1SOL    HW3 7883   0.393   3.207   3.464  0.1920 -1.8643  0.0254
    1SOL    MW4 7884   0.466   3.226   3.508 -0.1495 -0.7279  0.1304
    1SOL     OW 7885   0.491   3.481   3.401 -0.1996  0.3717 -0.2306
    1SOL    HW2 7886   0.483   3.390   3.431  0.1527  1.0029  1.8837
    1SOL    HW3 7887   0.418   3.527   3.442  0.1964  1.2515 -0.4920
    1SOL    MW4 7888   0.480   3.475   3.410 -0.1009  0.5713  0.0141
    1SOL     OW 7889   0.690   3.624   3.530  1.1346 -0.3515 -0.0430
    1SOL    HW2 7890   0.768   3.588   3.489  1.0930 -0.1666 -0.2868
    1SOL    HW3 7891   0.618   3.573   3.494  1.1187 -0.3434 -0.0231
    1SOL    MW4 7892   0.691   3.613   3.520  1.1270 -0.3262 -0.0725
    1SOL     OW 7893   0.662   3.853   3.378 -0.0343  0.2517  0.6624
    1SOL    HW2 7894   0.585   3.902   3.406  0.9938  1.9027  0.6888
    1SOL    HW3 7895   0.661   3.773   3.430 -1.9581  0.0572  0.3520
    1SOL    MW4 7896   0.652   3.849   3.388 -0.1524  0.4437  0.6251
    1SOL     OW 7897   0.438   3.982   3.464  0.1330  0.3243 -0.3160
    1SOL    HW2 7898   0.437   4.076   3.444  0.1921  0.1269 -1.2615
    1SOL    HW3 7899   0.365   3.946   3.413  0.8723 -0.3334 -0.9114
    1SOL    MW4 7900   0.428   3.990   3.455  0.2384  0.2117 -0.5193
    1SOL     OW 7901   0.421   4.257   3.405 -0.3649  0.2583  0.1908
    1SOL    HW2 7902   0.489   4.308   3.448  0.0938 -0.3807  0.2368
    1SOL    HW3 7903   0.436   4.271   3.311  0.5789 -0.8300  0.1712
    1SOL    MW4 7904   0.432   4.265   3.398 -0.1799  0.0305  0.1941
    1SOL     OW 7905   0.653   4.389   3.495 -0.1759  0.5859 -1.1090
    1SOL    HW2 7906   0.722   4.352   3.440  1.3979  2.5301 -0.4886
    1SOL    HW3 7907   0.649   4.481   3.469 -1.4105  0.8605  0.0334
    1SOL    MW4 7908   0.662   4.396   3.484 -0.1311  0.8788 -0.8764
    1SOL     OW 7909   1.080   4.654   3.391  0.2325 -0.0230  0.3793
    1SOL    HW2 7910   1.170   4.677   3.411  0.3725  0.6701 -1.0242
    1SOL    HW3 7911   1.077   4.646   3.296 -0.7280 -1.9579  0.5300
    1SOL    MW4 7912   1.091   4.656   3.381  0.1243 -0.1879  0.2143
    1SOL     OW 7913   0.890   0.113   3.523 -0.2760  0.1825  0.4832
    1SOL    HW2 7914   0.899   0.094   3.616 -0.5495 -2.6391  0.0011
    1SOL    HW3 7915   0.966   0.071   3.482 -1.3820 -0.6703 -0.7673
    1SOL    MW4 7916   0.901   0.105   3.530 -0.4581 -0.3023  0.2546
    1SOL     OW 7917   0.877   0.371   3.386 -1.0077  0.0285  0.0574
    1SOL    HW2 7918   0.963   0.408   3.409 -1.0964  1.1791 -1.3799
    1SOL    HW3 7919   0.879   0.283   3.422  0.9881 -0.1525 -0.3991
    1SOL    MW4 7920   0.889   0.364   3.394 -0.7561  0.1564 -0.1922
    1SOL     OW 7921   1.125   0.482   3.465 -0.6104 -0.2077 -0.4528
    1SOL    HW2 7922   1.124   0.480   3.561  4.1046 -1.1434 -0.3016
    1SOL    HW3 7923   1.139   0.574   3.443  2.8792 -0.5226  0.0361
    1SOL    MW4 7924   1.127   0.494   3.475  0.4722 -0.3727 -0.3679
    1SOL     OW 7925   1.137   0.756   3.414 -0.3222  0.2240  0.2162
    1SOL    HW2 7926   1.213   0.799   3.454  0.3159 -0.2787 -0.4389
    1SOL    HW3 7927   1.063   0.811   3.439  0.1905  0.4650  1.2561
    1SOL    MW4 7928   1.137   0.769   3.423 -0.1704  0.1895  0.2670
    1SOL     OW 7929   0.911   0.880   3.472 -0.1339  0.1287 -0.1093
    1SOL    HW2 7930   0.906   0.975   3.459 -0.0548 -0.0480 -1.5639
    1SOL    HW3 7931   0.826   0.847   3.444 -0.3213 -0.1879  0.8219
    1SOL    MW4 7932   0.899   0.888   3.467 -0.1482  0.0637 -0.1783
    1SOL     OW 7933   0.889   1.159   3.407 -0.2395 -0.1782  0.3207
    1SOL    HW2 7934   0.968   1.212   3.417 -1.0096  1.0787 -0.0673
    1SOL    HW3 7935   0.885   1.140   3.313 -1.0572  0.8310  0.1396
    1SOL    MW4 7936   0.899   1.163   3.396 -0.4490  0.1208  0.2456
    1SOL     OW 7937   1.129   1.276   3.445 -0.3270  0.3609  0.1537
    1SOL    HW2 7938   1.117   1.266   3.539  1.1198 -0.1746  0.2857
    1SOL    HW3 7939   1.138   1.370   3.432  1.9104  0.2786  0.8712
    1SOL    MW4 7940   1.129   1.287   3.456  0.1593  0.2795  0.2661
    1SOL     OW 7941   1.133   1.540   3.379 -0.3778  0.3708 -0.3225
    1SOL    HW2 7942   1.209   1.582   3.420  0.0278 -0.2368 -0.4528
    1SOL    HW3 7943   1.147   1.553   3.285  0.2762 -0.9498 -0.4178
    1SOL    MW4 7944   1.145   1.547   3.372 -0.2379  0.1163 -0.3524
    1SOL     OW 7945   0.923   1.674   3.479  0.0942  0.5092 -0.1838
    1SOL    HW2 7946   0.916   1.757   3.431 -0.2536  0.2526 -0.5890
    1SOL    HW3 7947   0.998   1.630   3.440  0.4359  0.7478  0.2082
    1SOL    MW4 7948   0.932   1.679   3.467  0.0934  0.5068 -0.1857
    1SOL     OW 7949   0.944   1.924   3.347  0.2854 -0.0082  0.0899
    1SOL    HW2 7950   1.030   1.952   3.379  0.8545 -1.4913 -0.0752
    1SOL    HW3 7951   0.882   1.963   3.408  0.9742  2.1536 -0.5404
    1SOL    MW4 7952   0.947   1.933   3.359  0.4514  0.0813 -0.0153
    1SOL     OW 7953   1.125   2.059   3.507 -0.1928  0.3167 -0.1091
    1SOL    HW2 7954   1.210   2.030   3.475  0.0162  0.9814 -0.1597
    1SOL    HW3 7955   1.121   2.152   3.483 -1.2306  0.1163 -0.7551
    1SOL    MW4 7956   1.136   2.067   3.499 -0.3021  0.3779 -0.2010
    1SOL     OW 7957   1.157   2.335   3.387  0.3322 -0.0378 -0.0707
    1SOL    HW2 7958   1.240   2.368   3.422  0.9210 -0.3873 -1.0984
    1SOL    HW3 7959   1.165   2.348   3.292 -1.9541  2.6228  0.0084
    1SOL    MW4 7960   1.169   2.341   3.379  0.1082  0.2670 -0.1957
    1SOL     OW 7961   0.930   2.457   3.508 -0.4697 -0.6954 -0.0152
    1SOL    HW2 7962   0.934   2.447   3.604  1.2332  0.9193  0.1054
    1SOL    HW3 7963   1.004   2.407   3.476 -0.7607 -0.8355 -0.4738
    1SOL    MW4 7964   0.940   2.449   3.517 -0.2834 -0.5007 -0.0601
    1SOL     OW 7965   0.917   2.727   3.447 -0.0358  0.3919 -0.0430
    1SOL    HW2 7966   0.999   2.766   3.478  0.6365 -0.0326 -1.2530
    1SOL    HW3 7967   0.930   2.633   3.457 -0.4738  0.3350 -0.0101
    1SOL    MW4 7968   0.930   2.720   3.453 -0.0049  0.3285 -0.1984
    1SOL     OW 7969   1.146   2.852   3.540 -0.3635  0.4269  0.9957
    1SOL    HW2 7970   1.173   2.869   3.630  1.2981  3.5840 -0.0214
    1SOL    HW3 7971   1.220   2.803   3.502  0.2775  1.7132  0.5510
    1SOL    MW4 7972   1.159   2.848   3.547 -0.0597  1.0133  0.8030
    1SOL     OW 7973   1.152   3.121   3.413 -0.4116 -0.3936  0.0296
    1SOL    HW2 7974   1.142   3.035   3.455 -2.6543 -0.9519 -1.5484
    1SOL    HW3 7975   1.163   3.101   3.320 -0.3101  0.9914 -0.2653
    1SOL    MW4 7976   1.152   3.107   3.406 -0.6942 -0.2844 -0.2174
    1SOL     OW 7977   0.930   3.250   3.519 -0.5277  0.1859  0.4196
    1SOL    HW2 7978   1.005   3.215   3.472 -0.1280  0.9974  0.4454
    1SOL    HW3 7979   0.854   3.207   3.480 -0.0414 -0.7003  0.4513
    1SOL    MW4 7980   0.930   3.240   3.508 -0.4107  0.1760  0.4272
    1SOL     OW 7981   0.937   3.499   3.426 -0.1872 -0.5497 -0.1867
    1SOL    HW2 7982   0.940   3.415   3.472 -0.4827 -0.3939  0.1196
    1SOL    HW3 7983   0.917   3.476   3.335  0.6318 -0.8754 -0.2816
    1SOL    MW4 7984   0.935   3.485   3.420 -0.1181 -0.5720 -0.1585
    1SOL     OW 7985   1.168   3.618   3.502 -0.2939  0.7636 -0.1290
    1SOL    HW2 7986   1.172   3.625   3.597 -1.4121  2.6142 -0.1820
    1SOL    HW3 7987   1.082   3.578   3.485  0.4426 -0.7748 -0.3400
    1SOL    MW4 7988   1.157   3.614   3.512 -0.3442  0.8049 -0.1638
    1SOL     OW 7989   1.117   3.880   3.455  0.3231  0.0392  0.2484
    1SOL    HW2 7990   1.201   3.928   3.456  0.8898 -0.9384  1.2616
    1SOL    HW3 7991   1.140   3.792   3.483 -1.2269  0.0426  1.5772
    1SOL    MW4 7992   1.131   3.875   3.459  0.1935 -0.0894  0.5569
    1SOL     OW 7993   0.870   3.995   3.490 -0.0318 -0.1895  0.2588
    1SOL    HW2 7994   0.959   3.960   3.487 -0.3256 -0.8670 -0.6897
    1SOL    HW3 7995   0.818   3.932   3.441 -0.7676  0.9870 -0.4911
    1SOL    MW4 7996   0.875   3.982   3.483 -0.1676 -0.1237  0.0346
    1SOL     OW 7997   0.855   4.244   3.355  0.1258 -0.1629 -0.0572
    1SOL    HW2 7998   0.861   4.161   3.403 -0.3591 -0.1392  0.0470
    1SOL    HW3 7999   0.884   4.222   3.266  1.2356 -0.1623  0.2917
    1SOL    MW4 8000   0.860   4.230   3.349  0.2081 -0.1597  0.0026
    1SOL     OW 8001   1.101   4.369   3.442  0.0759 -0.0067 -0.3757
    1SOL    HW2 8002   1.019   4.323   3.422 -0.3880  1.0984 -1.0600
    1SOL    HW3 8003   1.089   4.456   3.405  1.2604  0.4176  0.2167
    1SOL    MW4 8004   1.088   4.374   3.435  0.1711  0.1955 -0.3881
    1SOL     OW 8005   1.577   4.632   3.421  0.4957 -0.1934 -0.5836
    1SOL    HW2 8006   1.580   4.546   3.463  0.9384  0.4171  0.6524
    1SOL    HW3 8007   1.489   4.665   3.439 -0.3484 -1.1879 -2.7162
    1SOL    MW4 8008   1.566   4.625   3.429  0.4429 -0.2441 -0.7021
    1SOL     OW 8009   1.326   0.070   3.453 -0.0947 -0.5951  0.2213
    1SOL    HW2 8010   1.314   0.080   3.548 -0.1121 -1.0552  0.2693
    1SOL    HW3 8011   1.331   0.159   3.420  0.6473 -0.4309  0.7508
    1SOL    MW4 8012   1.325   0.083   3.461  0.0010 -0.6341  0.2978
    1SOL     OW 8013   1.344   0.351   3.386 -0.1215  0.1330 -0.3003
    1SOL    HW2 8014   1.412   0.401   3.431  0.4459 -1.2795  0.4541
    1SOL    HW3 8015   1.262   0.390   3.416  0.3331  1.8319 -1.1979
    1SOL    MW4 8016   1.342   0.363   3.396  0.0135  0.1708 -0.3190
    1SOL     OW 8017   1.552   0.496   3.491 -0.3871 -0.1999  0.1054
    1SOL    HW2 8018   1.545   0.491   3.587  1.1346  1.6278  0.3280
    1SOL    HW3 8019   1.627   0.441   3.470 -0.0097  0.3311  0.0672
    1SOL    MW4 8020   1.561   0.488   3.501 -0.1364  0.1113  0.1297
    1SOL     OW 8021   1.561   0.749   3.366 -0.2740 -0.3363 -0.3639
    1SOL    HW2 8022   1.500   0.789   3.428  1.0594  0.9573  0.1449
    1SOL    HW3 8023   1.563   0.657   3.389 -0.9217 -0.1180  0.5662
    1SOL    MW4 8024   1.553   0.742   3.377 -0.1835 -0.1368 -0.1740
    1SOL     OW 8025   1.357   0.889   3.512  0.4028  0.4074  0.0751
    1SOL    HW2 8026   1.335   0.889   3.606  0.6876 -0.3531  0.1479
    1SOL    HW3 8027   1.345   0.980   3.485  0.6750  0.7122  0.9392
    1SOL    MW4 8028   1.353   0.901   3.521  0.4764  0.3473  0.1984
    1SOL     OW 8029   1.373   1.153   3.407 -0.0238 -0.3270  0.2699
    1SOL    HW2 8030   1.441   1.219   3.412 -1.4540  1.3509 -1.4947
    1SOL    HW3 8031   1.294   1.197   3.436 -1.5434 -0.3567 -3.4723
    1SOL    MW4 8032   1.372   1.167   3.411 -0.4131 -0.1096 -0.4568
    1SOL     OW 8033   1.595   1.308   3.493 -0.3139 -0.1805 -0.5519
    1SOL    HW2 8034   1.586   1.294   3.587  0.0563 -0.8509 -0.6117
    1SOL    HW3 8035   1.661   1.245   3.466  0.5416  0.9107 -1.0433
    1SOL    MW4 8036   1.603   1.298   3.502 -0.1521 -0.1251 -0.6247
    1SOL     OW 8037   1.572   1.554   3.373  0.0936 -0.2205 -0.1509
    1SOL    HW2 8038   1.571   1.463   3.403  0.0898 -0.5390 -1.1140
    1SOL    HW3 8039   1.571   1.548   3.278 -2.3245  0.8127 -0.2281
    1SOL    MW4 8040   1.572   1.541   3.365 -0.2260 -0.1261 -0.2882
    1SOL     OW 8041   1.354   1.674   3.495 -0.2757 -0.5289  0.1238
    1SOL    HW2 8042   1.357   1.663   3.590  0.7555 -0.5012  0.0990
    1SOL    HW3 8043   1.428   1.622   3.462  1.3060  1.9583 -0.4041
    1SOL    MW4 8044   1.364   1.666   3.503  0.0691 -0.1971  0.0508
    1SOL     OW 8045   1.332   1.920   3.368  0.1753 -0.1808 -0.0697
    1SOL    HW2 8046   1.411   1.958   3.405  0.8180  0.4875 -2.1089
    1SOL    HW3 8047   1.324   1.835   3.411 -0.8034  1.7964  3.8813
    1SOL    MW4 8048   1.341   1.914   3.379  0.1309  0.1681  0.1824
    1SOL     OW 8049   1.570   2.021   3.472  0.1416  0.7455  0.2692
    1SOL    HW2 8050   1.647   1.971   3.445 -0.1641  1.1337 -1.3559
    1SOL    HW3 8051   1.576   2.103   3.424 -1.5964  0.5304 -0.3764
    1SOL    MW4 8052   1.581   2.025   3.462 -0.1280  0.7679 -0.0303
    1SOL     OW 8053   1.575   2.262   3.341  0.4194  0.1535  0.1306
    1SOL    HW2 8054   1.519   2.333   3.373 -0.0430 -0.5659  0.9248
    1SOL    HW3 8055   1.593   2.285   3.249 -0.2136  0.9811  0.2106
    1SOL    MW4 8056   1.570   2.274   3.333  0.2749  0.1678  0.2458
    1SOL     OW 8057   1.401   2.459   3.444 -0.1601  0.2970 -0.3112
    1SOL    HW2 8058   1.406   2.460   3.539  2.1434  0.3576 -0.3976
    1SOL    HW3 8059   1.394   2.552   3.419 -1.8991  0.2234 -0.1920
    1SOL    MW4 8060   1.401   2.472   3.453 -0.0856  0.2952 -0.3068
    1SOL     OW 8061   1.343   2.720   3.374  0.0995  0.0999 -0.8088
    1SOL    HW2 8062   1.422   2.770   3.395  0.8726 -1.4536  0.0393
    1SOL    HW3 8063   1.335   2.727   3.279  2.1422 -0.9837 -1.0933
    1SOL    MW4 8064   1.352   2.727   3.364  0.4710 -0.2480 -0.7346
    1SOL     OW 8065   1.575   2.826   3.441  0.4337  0.0946  0.4548
    1SOL    HW2 8066   1.659   2.788   3.417  0.7283  0.2913  1.1852
    1SOL    HW3 8067   1.588   2.920   3.433 -0.1857  0.0735 -0.9877
    1SOL    MW4 8068   1.587   2.833   3.436  0.3909  0.1178  0.3610
    1SOL     OW 8069   1.612   3.109   3.385  0.2744  0.6496 -0.4451
    1SOL    HW2 8070   1.692   3.157   3.407 -0.0085  0.6630  0.5580
    1SOL    HW3 8071   1.544   3.149   3.437 -0.0990 -0.3810 -0.1263
    1SOL    MW4 8072   1.614   3.121   3.394  0.1879  0.5155 -0.2708
    1SOL     OW 8073   1.386   3.230   3.493  0.3357  0.1057 -0.2690
    1SOL    HW2 8074   1.374   3.238   3.588 -0.2204  1.1770 -0.4291
    1SOL    HW3 8075   1.307   3.184   3.463 -0.2786  1.2362 -0.4241
    1SOL    MW4 8076   1.374   3.225   3.501  0.1813  0.3960 -0.3107
    1SOL     OW 8077   1.372   3.489   3.377  0.1492 -0.1180 -0.4395
    1SOL    HW2 8078   1.370   3.401   3.416  0.9423  0.6218  1.3141
    1SOL    HW3 8079   1.296   3.534   3.415 -0.3567 -0.0744 -1.4696
    1SOL    MW4 8080   1.361   3.483   3.387  0.1872 -0.0148 -0.3438
    1SOL     OW 8081   1.593   3.576   3.499  0.2411 -0.3812  0.8241
    1SOL    HW2 8082   1.583   3.587   3.594  0.3466  1.0059  0.6844
    1SOL    HW3 8083   1.508   3.543   3.470 -0.0434 -0.0880  1.3084
    1SOL    MW4 8084   1.581   3.573   3.508  0.2174 -0.1595  0.8698
    1SOL     OW 8085   1.553   3.838   3.399  0.2362 -0.2635  0.1337
    1SOL    HW2 8086   1.560   3.750   3.436  0.8047 -0.1700  0.2576
    1SOL    HW3 8087   1.550   3.825   3.305  0.5679 -0.4079  0.1404
    1SOL    MW4 8088   1.554   3.825   3.392  0.3549 -0.2704  0.1509
    1SOL     OW 8089   1.355   4.007   3.512 -0.1005 -0.1575  0.0731
    1SOL    HW2 8090   1.349   4.090   3.465 -0.5904 -0.3114 -0.1312
    1SOL    HW3 8091   1.429   3.962   3.472  0.6137  0.4840  0.6606
    1SOL    MW4 8092   1.364   4.012   3.500 -0.0710 -0.0925  0.1237
    1SOL     OW 8093   1.343   4.249   3.394 -0.4040  0.4865 -0.2672
    1SOL    HW2 8094   1.260   4.294   3.411 -1.0744 -0.6474 -0.4075
    1SOL    HW3 8095   1.344   4.238   3.299 -0.3707 -0.0062 -0.2105
    1SOL    MW4 8096   1.332   4.253   3.384 -0.4880  0.2713 -0.2785
    1SOL     OW 8097   1.562   4.371   3.532  0.3933  0.5569  0.1648
    1SOL    HW2 8098   1.641   4.335   3.492  0.0099  0.4604 -0.5118
    1SOL    HW3 8099   1.490   4.335   3.480  0.0063  2.3794 -0.5953
    1SOL    MW4 8100   1.563   4.362   3.520  0.2916  0.7844 -0.0248
    1SOL     OW 8101   2.024   4.652   3.359  0.6068 -0.7869 -0.2911
    1SOL    HW2 8102   2.101   4.687   3.404 -0.2423 -0.1415  0.6917
    1SOL    HW3 8103   1.950   4.690   3.406 -0.3136 -1.5611 -1.0995
    1SOL    MW4 8104   2.024   4.661   3.371  0.3734 -0.8035 -0.2682
    1SOL     OW 8105   1.811   0.115   3.505 -0.4873  0.2913  0.6011
    1SOL    HW2 8106   1.796   0.121   3.600  0.7397 -2.3331  0.9846
    1SOL    HW3 8107   1.741   0.058   3.473 -1.4677  1.9306 -0.2617
    1SOL    MW4 8108   1.800   0.108   3.513 -0.4548  0.1613  0.5381
    1SOL     OW 8109   1.796   0.371   3.396 -0.1867  0.1853 -0.0339
    1SOL    HW2 8110   1.789   0.286   3.440 -1.8264  0.1276 -0.3700
    1SOL    HW3 8111   1.791   0.349   3.303 -0.7480  0.6535 -0.1167
    1SOL    MW4 8112   1.794   0.357   3.389 -0.4770  0.2394 -0.0892
    1SOL     OW 8113   2.007   0.481   3.546  0.3504  0.4117 -0.3591
    1SOL    HW2 8114   2.003   0.569   3.508  1.3082  0.6954  0.1722
    1SOL    HW3 8115   1.927   0.438   3.516 -0.0438  1.4087 -0.7602
    1SOL    MW4 8116   1.996   0.487   3.537  0.4249  0.5807 -0.3417
    1SOL     OW 8117   2.021   0.716   3.418 -0.1053  0.2495 -0.7050
    1SOL    HW2 8118   2.087   0.778   3.448 -0.2273  0.0159  0.0752
    1SOL    HW3 8119   2.008   0.736   3.326 -0.1168  1.3529 -0.4664
    1SOL    MW4 8120   2.028   0.727   3.410 -0.1228  0.3642 -0.5708
    1SOL     OW 8121   1.788   0.854   3.485 -0.0174  0.0540 -0.5271
    1SOL    HW2 8122   1.874   0.816   3.466  0.2070  0.6081 -0.6390
    1SOL    HW3 8123   1.725   0.787   3.457  0.3468  0.1420 -1.5987
    1SOL    MW4 8124   1.791   0.840   3.479  0.0603  0.1387 -0.6833
    1SOL     OW 8125   1.770   1.115   3.361  0.2749  0.3993 -0.5607
    1SOL    HW2 8126   1.846   1.146   3.410  0.0682  0.7883 -0.4858
    1SOL    HW3 8127   1.758   1.025   3.391  0.2667  0.5730 -0.0270
    1SOL    MW4 8128   1.778   1.107   3.372  0.2466  0.4736 -0.4804
    1SOL     OW 8129   1.999   1.255   3.457 -0.3787  0.2889 -0.3618
    1SOL    HW2 8130   2.003   1.263   3.553  1.5879 -0.9034 -0.3211
    1SOL    HW3 8131   1.994   1.346   3.426 -1.6336  0.6633  0.8721
    1SOL    MW4 8132   1.999   1.268   3.466 -0.2847  0.1810 -0.1936
    1SOL     OW 8133   1.996   1.527   3.366 -0.0890 -0.0350  0.0982
    1SOL    HW2 8134   2.078   1.561   3.402  0.4542 -0.4459 -0.7465
    1SOL    HW3 8135   1.928   1.573   3.416  0.6392  1.2675 -0.0844
    1SOL    MW4 8136   1.998   1.537   3.378  0.0787  0.0826 -0.0374
    1SOL     OW 8137   1.803   1.667   3.481  0.2415  0.6015  0.3643
    1SOL    HW2 8138   1.801   1.750   3.432  0.2490  1.3089  1.5435
    1SOL    HW3 8139   1.727   1.619   3.450  0.2648  1.0245 -0.3716
    1SOL    MW4 8140   1.793   1.672   3.470  0.2456  0.7507  0.4230
    1SOL     OW 8141   1.810   1.912   3.371  0.4524  0.3136 -0.3062
    1SOL    HW2 8142   1.888   1.954   3.407  1.8912 -1.5460 -1.2052
    1SOL    HW3 8143   1.824   1.911   3.277  0.3632 -2.0261 -0.3068
    1SOL    MW4 8144   1.822   1.918   3.363  0.6305 -0.2406 -0.4249
    1SOL     OW 8145   1.998   2.039   3.503 -0.3245  0.1968 -0.5593
    1SOL    HW2 8146   2.077   1.991   3.479 -0.1217  0.0756  0.3454
    1SOL    HW3 8147   2.004   2.122   3.456 -0.1488 -0.2162 -1.2734
    1SOL    MW4 8148   2.009   2.043   3.494 -0.2747  0.1264 -0.5341
    1SOL     OW 8149   2.044   2.290   3.383  0.3212 -0.0817  0.3326
    1SOL    HW2 8150   2.125   2.331   3.412  0.0154  0.7029  0.0692
    1SOL    HW3 8151   2.053   2.284   3.288  0.0256  0.0779  0.2978
    1SOL    MW4 8152   2.056   2.294   3.374  0.2418  0.0429  0.2930
    1SOL     OW 8153   1.793   2.442   3.454  0.0624  0.3096 -0.3866
    1SOL    HW2 8154   1.870   2.387   3.440 -0.0192  0.1245 -0.1160
    1SOL    HW3 8155   1.719   2.387   3.426 -0.1282 -0.1586  0.9766
    1SOL    MW4 8156   1.793   2.427   3.449  0.0263  0.2234 -0.1709
    1SOL     OW 8157   1.808   2.694   3.353 -0.0308 -0.2633 -0.0030
    1SOL    HW2 8158   1.890   2.732   3.383 -0.0143  0.6634 -1.1876
    1SOL    HW3 8159   1.810   2.604   3.386  0.6746  0.2642  1.4181
    1SOL    MW4 8160   1.819   2.687   3.362  0.0643 -0.0713  0.0281
    1SOL     OW 8161   2.037   2.811   3.457 -0.3329  0.2235 -0.3668
    1SOL    HW2 8162   2.072   2.817   3.545 -0.8047 -1.3931 -0.0636
    1SOL    HW3 8163   2.050   2.899   3.420  2.0685  0.2287  0.4514
    1SOL    MW4 8164   2.043   2.823   3.464 -0.0782  0.0110 -0.2189
    1SOL     OW 8165   2.059   3.080   3.390 -0.1089 -0.3139 -0.7098
    1SOL    HW2 8166   2.144   3.124   3.402  0.2413 -1.3570  0.8959
    1SOL    HW3 8167   1.997   3.134   3.439  0.1443 -1.0284  0.4291
    1SOL    MW4 8168   2.062   3.093   3.398 -0.0293 -0.5457 -0.3476
    1SOL     OW 8169   1.857   3.253   3.483 -0.1408 -0.0217  0.0078
    1SOL    HW2 8170   1.805   3.247   3.563 -1.4707  1.1698 -0.7549
    1SOL    HW3 8171   1.858   3.346   3.460  0.1374 -0.3551 -1.4203
    1SOL    MW4 8172   1.850   3.264   3.490 -0.2797  0.0916 -0.2813
    1SOL     OW 8173   1.844   3.526   3.429  0.1456  0.0826  0.1399
    1SOL    HW2 8174   1.755   3.538   3.461  0.5520  1.4463  0.8538
    1SOL    HW3 8175   1.836   3.523   3.334 -0.7319 -0.4881  0.2302
    1SOL    MW4 8176   1.832   3.527   3.421  0.0833  0.1874  0.2460
    1SOL     OW 8177   2.075   3.620   3.577  0.6486 -0.2933 -0.2021
    1SOL    HW2 8178   2.153   3.581   3.538  0.4770 -0.5797 -0.2610
    1SOL    HW3 8179   2.002   3.586   3.525  0.4113 -0.7469  0.4142
    1SOL    MW4 8180   2.076   3.611   3.565  0.5946 -0.3910 -0.1285
    1SOL     OW 8181   2.061   3.887   3.440  0.3622  0.3083  0.5694
    1SOL    HW2 8182   1.967   3.903   3.442  0.0386 -1.1080 -1.6569
    1SOL    HW3 8183   2.074   3.811   3.497 -0.3938 -1.7908 -1.9394
    1SOL    MW4 8184   2.051   3.879   3.448  0.2196 -0.1554 -0.0556
    1SOL     OW 8185   1.787   3.966   3.449  0.0024  0.9782  0.1630
    1SOL    HW2 8186   1.791   3.970   3.545 -2.1191  0.1880  0.3090
    1SOL    HW3 8187   1.705   3.922   3.430  1.0697 -0.1751 -2.0176
    1SOL    MW4 8188   1.777   3.961   3.459 -0.1367  0.7215 -0.1051
    1SOL     OW 8189   1.778   4.246   3.389  0.1398  0.7244 -0.3403
    1SOL    HW2 8190   1.786   4.154   3.416  0.3908  1.1344  1.0021
    1SOL    HW3 8191   1.768   4.242   3.294 -1.2205 -0.7678 -0.1486
    1SOL    MW4 8192   1.778   4.233   3.380 -0.0064  0.5813 -0.1378
    1SOL     OW 8193   2.008   4.392   3.441 -0.1724  0.1595  0.1259
    1SOL    HW2 8194   1.922   4.357   3.417  0.6794 -1.0348 -1.2477
    1SOL    HW3 8195   2.002   4.485   3.419 -1.0086  0.0248 -0.2445
    1SOL    MW4 8196   1.996   4.400   3.435 -0.1706 -0.0157 -0.1042
    1SOL     OW 8197   2.498   0.029   3.363  0.5643  0.6295  0.0710
    1SOL    HW2 8198   2.495  -0.056   3.406  1.2544  0.9580  0.7696
    1SOL    HW3 8199   2.495   0.009   3.269 -0.7254 -0.0905  0.2511
    1SOL    MW4 8200   2.497   0.015   3.356  0.4852  0.5779  0.1869
    1SOL     OW 8201   2.258   0.090   3.472  0.2296  0.0250 -0.0586
    1SOL    HW2 8202   2.242   0.180   3.443  0.9994 -0.2698 -1.4316
    1SOL    HW3 8203   2.335   0.062   3.422 -0.3065 -1.5570 -0.0222
    1SOL    MW4 8204   2.266   0.098   3.461  0.2604 -0.2226 -0.2351
    1SOL     OW 8205   2.208   0.366   3.385 -0.2363  0.2531 -0.0471
    1SOL    HW2 8206   2.289   0.410   3.410  0.4325 -0.1376 -1.4999
    1SOL    HW3 8207   2.140   0.410   3.436  0.8609  0.7024  1.0399
    1SOL    MW4 8208   2.209   0.377   3.395 -0.0033  0.2608 -0.0956
    1SOL     OW 8209   2.435   0.504   3.436  0.2374  0.0383 -0.2513
    1SOL    HW2 8210   2.524   0.487   3.407  0.0534 -0.0984 -0.7346
    1SOL    HW3 8211   2.419   0.596   3.414  1.0965  0.7530  2.0066
    1SOL    MW4 8212   2.444   0.514   3.430  0.3264  0.1146 -0.0172
    1SOL     OW 8213   2.459   0.775   3.408 -0.0817 -0.4941  0.0794
    1SOL    HW2 8214   2.544   0.780   3.452 -1.0121  0.1586  1.8455
    1SOL    HW3 8215   2.478   0.795   3.317  1.2738  2.5132  0.9505
    1SOL    MW4 8216   2.473   0.778   3.402 -0.0255 -0.0113  0.4272
    1SOL     OW 8217   2.215   0.888   3.471  0.2977 -0.3457 -0.2860
    1SOL    HW2 8218   2.225   0.967   3.419  0.2853  0.6000  1.1359
    1SOL    HW3 8219   2.296   0.839   3.457  1.3463  1.0835  0.8013
    1SOL    MW4 8220   2.227   0.892   3.462  0.4346 -0.0324  0.0448
    1SOL     OW 8221   2.217   1.129   3.346  0.2184 -0.3731  0.2447
    1SOL    HW2 8222   2.294   1.163   3.393 -0.4966  0.1078  1.0743
    1SOL    HW3 8223   2.143   1.173   3.386 -0.4693 -0.5492 -0.8254
    1SOL    MW4 8224   2.218   1.139   3.358  0.0334 -0.3330  0.2129
    1SOL     OW 8225   2.442   1.220   3.467  0.4072 -0.1011  0.6042
    1SOL    HW2 8226   2.463   1.224   3.561  2.3883  0.6446  0.1600
    1SOL    HW3 8227   2.520   1.182   3.427  0.0913  0.8113 -0.9084
    1SOL    MW4 8228   2.455   1.215   3.474  0.6270  0.1177  0.3459
    1SOL     OW 8229   2.479   1.492   3.400  0.2417 -0.1061  0.1608
    1SOL    HW2 8230   2.470   1.399   3.421  0.4292 -0.2583 -0.4134
    1SOL    HW3 8231   2.512   1.493   3.310 -1.1938  0.5375 -0.3632
    1SOL    MW4 8232   2.482   1.480   3.391  0.0770 -0.0414  0.0162
    1SOL     OW 8233   2.250   1.640   3.472  0.4015  0.4573  0.0780
    1SOL    HW2 8234   2.241   1.640   3.568 -1.1470  0.7350 -0.0690
    1SOL    HW3 8235   2.326   1.584   3.456  1.9698  2.1051  1.5783
    1SOL    MW4 8236   2.259   1.632   3.483  0.4041  0.7113  0.2565
    1SOL     OW 8237   2.219   1.910   3.397  0.0558  0.1439 -0.0684
    1SOL    HW2 8238   2.241   1.817   3.402 -0.3325  0.0271 -0.4331
    1SOL    HW3 8239   2.218   1.929   3.303 -2.8612 -0.2365 -0.1600
    1SOL    MW4 8240   2.222   1.900   3.386 -0.3803  0.0783 -0.1287
    1SOL     OW 8241   2.459   2.060   3.503 -0.0857  0.0879  0.4601
    1SOL    HW2 8242   2.465   2.043   3.597  0.1888 -0.0421  0.4202
    1SOL    HW3 8243   2.379   2.014   3.475 -1.7479  2.4860  1.1372
    1SOL    MW4 8244   2.449   2.051   3.511 -0.2687  0.3872  0.5441
    1SOL     OW 8245   2.494   2.298   3.361 -0.0647 -0.2164 -0.7208
    1SOL    HW2 8246   2.555   2.360   3.402 -0.5713 -0.1397 -0.0782
    1SOL    HW3 8247   2.498   2.221   3.417 -1.1650  0.0900 -0.2133
    1SOL    MW4 8248   2.503   2.296   3.374 -0.2768 -0.1662 -0.5691
    1SOL     OW 8249   2.267   2.431   3.463  0.0593  0.0144 -0.0169
    1SOL    HW2 8250   2.256   2.524   3.445 -2.6355 -0.8129 -3.2381
    1SOL    HW3 8251   2.348   2.407   3.419  0.2666  0.6757  0.0052
    1SOL    MW4 8252   2.276   2.440   3.455 -0.2689 -0.0076 -0.4387
    1SOL     OW 8253   2.252   2.699   3.353 -0.9199  0.0180  0.0121
    1SOL    HW2 8254   2.165   2.730   3.378 -0.5703 -0.0958  1.4177
    1SOL    HW3 8255   2.257   2.713   3.258 -1.9285  1.3664  0.1504
    1SOL    MW4 8256   2.241   2.705   3.343 -1.0066  0.1810  0.2158
    1SOL     OW 8257   2.495   2.800   3.469 -0.1287  0.3322 -0.0901
    1SOL    HW2 8258   2.496   2.891   3.440 -0.1512  0.8046  1.3715
    1SOL    HW3 8259   2.413   2.765   3.435 -0.0337  0.7977 -0.8105
    1SOL    MW4 8260   2.484   2.807   3.461 -0.1194  0.4561  0.0076
    1SOL     OW 8261   2.540   3.063   3.366  0.7450  0.2082 -0.0373
    1SOL    HW2 8262   2.593   3.138   3.393 -0.1730  1.1548 -0.8158
    1SOL    HW3 8263   2.529   3.075   3.272  0.1371 -0.6171 -0.0722
    1SOL    MW4 8264   2.546   3.075   3.357  0.5436  0.2244 -0.1445
    1SOL     OW 8265   2.297   3.220   3.425 -0.0829 -0.0819 -0.2467
    1SOL    HW2 8266   2.304   3.223   3.520 -0.8022  0.9958 -0.2179
    1SOL    HW3 8267   2.374   3.171   3.396  1.1173  1.1894  0.7722
    1SOL    MW4 8268   2.308   3.214   3.434 -0.0193  0.2282 -0.1085
    1SOL     OW 8269   2.299   3.500   3.393  0.0194 -0.7728  0.0072
    1SOL    HW2 8270   2.309   3.407   3.409 -3.6303 -1.3936 -0.9818
    1SOL    HW3 8271   2.308   3.509   3.298  0.7087 -0.0306  0.1304
    1SOL    MW4 8272   2.302   3.489   3.382 -0.3710 -0.7570 -0.1068
    1SOL     OW 8273   2.532   3.634   3.469 -0.1256  0.0559  0.2153
    1SOL    HW2 8274   2.527   3.723   3.434 -0.4594 -0.3354 -0.7658
    1SOL    HW3 8275   2.447   3.595   3.446  0.1024 -0.5817  0.4463
    1SOL    MW4 8276   2.520   3.640   3.461 -0.1397 -0.0799  0.1161
    1SOL     OW 8277   2.518   3.881   3.371  0.4112  0.5783 -0.0339
    1SOL    HW2 8278   2.588   3.942   3.394 -0.2321  0.7607  1.4623
    1SOL    HW3 8279   2.442   3.911   3.420 -0.0841 -1.0513  0.2260
    1SOL    MW4 8280   2.518   3.893   3.380  0.2611  0.3872  0.1979
    1SOL     OW 8281   2.298   4.014   3.498  0.4593 -0.1670  0.3781
    1SOL    HW2 8282   2.285   4.105   3.472  0.7571 -0.1629  0.2344
    1SOL    HW3 8283   2.216   3.970   3.478  0.0381  0.2424  1.1873
    1SOL    MW4 8284   2.286   4.020   3.492  0.4427 -0.1121  0.4659
    1SOL     OW 8285   2.250   4.257   3.373 -0.3542 -0.0845  0.1696
    1SOL    HW2 8286   2.174   4.311   3.397 -1.0668 -0.7190 -0.6285
    1SOL    HW3 8287   2.241   4.244   3.278  0.2539 -0.9305  0.2225
    1SOL    MW4 8288   2.239   4.263   3.364 -0.3676 -0.2799  0.0713
    1SOL     OW 8289   2.449   4.447   3.461 -0.0859 -0.4343 -0.1755
    1SOL    HW2 8290   2.460   4.426   3.554  0.6246  0.2489 -0.1026
    1SOL    HW3 8291   2.392   4.378   3.428 -1.1581 -0.1424  0.9927
    1SOL    MW4 8292   2.443   4.435   3.469 -0.1338 -0.3061 -0.0119
    1SOL     OW 8293   2.898   0.022   3.370 -0.0198  0.1879 -0.3186
    1SOL    HW2 8294   2.820   0.071   3.397  0.1580  0.0373  0.4676
    1SOL    HW3 8295   2.888   0.012   3.275  0.2438  2.2672 -0.5756
    1SOL    MW4 8296   2.886   0.027   3.361  0.0386  0.4424 -0.2489
    1SOL     OW 8297   2.697   0.179   3.477  0.3925 -0.1211 -0.7050
    1SOL    HW2 8298   2.687   0.265   3.437 -2.2058  0.4745  1.0385
    1SOL    HW3 8299   2.613   0.135   3.462  0.3524 -0.9150  1.5988
    1SOL    MW4 8300   2.684   0.184   3.470  0.0443 -0.1473 -0.1709
    1SOL     OW 8301   2.687   0.441   3.361  0.3992  0.2302 -0.1195
    1SOL    HW2 8302   2.768   0.473   3.401  1.2281 -0.6192 -1.1102
    1SOL    HW3 8303   2.710   0.421   3.271 -0.8090 -0.4489 -0.2905
    1SOL    MW4 8304   2.701   0.443   3.355  0.3490  0.0285 -0.2728
    1SOL     OW 8305   2.923   0.515   3.472 -0.0283  0.0922  0.4746
    1SOL    HW2 8306   2.928   0.515   3.568 -0.1184  1.4904  0.5012
    1SOL    HW3 8307   2.936   0.607   3.448  1.0756 -0.4162 -0.9212
    1SOL    MW4 8308   2.925   0.527   3.482  0.1054  0.2096  0.2940
    1SOL     OW 8309   2.928   0.769   3.344 -0.5741 -0.2502  0.4656
    1SOL    HW2 8310   2.993   0.794   3.409 -0.7545 -0.1811  0.6210
    1SOL    HW3 8311   2.844   0.798   3.381 -0.6653 -0.1122  0.1538
    1SOL    MW4 8312   2.925   0.776   3.358 -0.6099 -0.2229  0.4451
    1SOL     OW 8313   2.719   0.862   3.485  0.2152  0.2214  0.0441
    1SOL    HW2 8314   2.728   0.870   3.580  0.9168 -1.0565  0.1041
    1SOL    HW3 8315   2.720   0.952   3.452  0.6526  0.6378  1.1898
    1SOL    MW4 8316   2.720   0.875   3.493  0.3655  0.1077  0.2034
    1SOL     OW 8317   2.692   1.119   3.382  0.4107  0.0813 -0.0178
    1SOL    HW2 8318   2.761   1.179   3.410 -0.2362  1.1401 -0.6530
    1SOL    HW3 8319   2.714   1.097   3.292  0.7645 -0.8237  0.2819
    1SOL    MW4 8320   2.704   1.124   3.374  0.3719  0.1017 -0.0622
    1SOL     OW 8321   2.910   1.274   3.503  0.3239  0.3960  0.1040
    1SOL    HW2 8322   2.917   1.283   3.598 -0.6827  0.0152  0.2159
    1SOL    HW3 8323   2.981   1.214   3.479  0.0847 -0.1337  0.7171
    1SOL    MW4 8324   2.921   1.268   3.512  0.1593  0.2760  0.1998
    1SOL     OW 8325   2.919   1.504   3.357 -0.1221  0.0630  0.0185
    1SOL    HW2 8326   2.857   1.563   3.399 -0.9420 -1.0231  0.3570
    1SOL    HW3 8327   2.913   1.423   3.407  1.8666  0.0711  0.2985
    1SOL    MW4 8328   2.910   1.501   3.369  0.0324 -0.0793  0.0999
    1SOL     OW 8329   2.727   1.673   3.487  0.0889  0.0296  0.0655
    1SOL    HW2 8330   2.713   1.762   3.455 -1.0876 -0.2575 -0.2558
    1SOL    HW3 8331   2.648   1.626   3.460  0.6990 -1.1018  0.2549
    1SOL    MW4 8332   2.714   1.679   3.479  0.0141 -0.1576  0.0482
    1SOL     OW 8333   2.688   1.944   3.373 -0.5646 -0.3161 -0.2587
    1SOL    HW2 8334   2.610   1.996   3.395 -0.4738 -0.2504 -0.0925
    1SOL    HW3 8335   2.688   1.940   3.277  0.1512  1.1019 -0.3365
    1SOL    MW4 8336   2.678   1.951   3.363 -0.4582 -0.1205 -0.2470
    1SOL     OW 8337   2.926   2.076   3.448 -0.2213  0.6198  0.2450
    1SOL    HW2 8338   2.930   2.075   3.543 -1.2902 -1.5523  0.3035
    1SOL    HW3 8339   2.846   2.028   3.427  0.1260  0.8641 -1.7585
    1SOL    MW4 8340   2.916   2.069   3.457 -0.3166  0.3653 -0.0117
    1SOL     OW 8341   2.911   2.341   3.373  0.3240 -0.0075 -0.0195
    1SOL    HW2 8342   2.918   2.251   3.406 -3.4917 -0.5508 -0.3756
    1SOL    HW3 8343   2.884   2.331   3.281 -0.2853  1.4885 -0.0221
    1SOL    MW4 8344   2.908   2.328   3.365 -0.2601  0.1185 -0.0670
    1SOL     OW 8345   2.692   2.467   3.490  0.4799  0.5650 -0.0626
    1SOL    HW2 8346   2.682   2.473   3.585  2.0254 -0.7734  0.2106
    1SOL    HW3 8347   2.766   2.408   3.477  0.4024  0.8629 -2.1067
    1SOL    MW4 8348   2.700   2.460   3.501  0.6735  0.4277 -0.2961
    1SOL     OW 8349   2.722   2.687   3.356 -0.1234 -0.3507 -0.7440
    1SOL    HW2 8350   2.725   2.607   3.408  0.1364 -0.2762 -0.6419
    1SOL    HW3 8351   2.636   2.725   3.375 -0.5780 -1.0319 -1.4395
    1SOL    MW4 8352   2.711   2.682   3.366 -0.1490 -0.4308 -0.8225
    1SOL     OW 8353   2.962   2.813   3.442 -0.2008  0.3092  0.0962
    1SOL    HW2 8354   2.952   2.819   3.537  0.8350 -0.2400  0.2454
    1SOL    HW3 8355   2.889   2.758   3.413 -0.2931  0.1587  0.6182
    1SOL    MW4 8356   2.951   2.807   3.450 -0.0763  0.2167  0.1850
    1SOL     OW 8357   2.947   3.086   3.372 -0.2600  0.0853  0.0893
    1SOL    HW2 8358   2.953   2.993   3.392 -0.0500 -0.1019 -0.8268
    1SOL    HW3 8359   2.950   3.090   3.276  0.9590  1.1180  0.1589
    1SOL    MW4 8360   2.948   3.074   3.362 -0.0715  0.1965 -0.0222
    1SOL     OW 8361   2.726   3.237   3.432 -0.0877 -0.0856 -0.3946
    1SOL    HW2 8362   2.716   3.238   3.527  0.2182 -0.7092 -0.3540
    1SOL    HW3 8363   2.783   3.162   3.415  0.1334  0.2331 -1.0419
    1SOL    MW4 8364   2.732   3.227   3.442 -0.0184 -0.1256 -0.4747
    1SOL     OW 8365   2.735   3.493   3.322  0.4327 -0.5198  0.3889
    1SOL    HW2 8366   2.733   3.408   3.367  1.0977 -0.1775  1.0906
    1SOL    HW3 8367   2.668   3.545   3.366 -0.0480 -0.7080 -0.1112
    1SOL    MW4 8368   2.726   3.488   3.334  0.4570 -0.4995  0.4156
    1SOL     OW 8369   2.926   3.607   3.485 -0.1074 -0.1853  0.2285
    1SOL    HW2 8370   2.933   3.699   3.458 -0.7410 -0.3108 -0.3661
    1SOL    HW3 8371   2.859   3.570   3.428 -0.5921 -0.7630  1.1538
    1SOL    MW4 8372   2.918   3.614   3.474 -0.2549 -0.2778  0.2723
    1SOL     OW 8373   2.944   3.869   3.387  0.2437 -0.3255  0.3937
    1SOL    HW2 8374   3.023   3.920   3.406  1.1261 -1.7093  0.5339
    1SOL    HW3 8375   2.872   3.931   3.398  1.2727  0.8141  0.8275
    1SOL    MW4 8376   2.945   3.883   3.391  0.4959 -0.3579  0.4697
    1SOL     OW 8377   2.733   4.035   3.442  0.1428 -0.0645 -0.0026
    1SOL    HW2 8378   2.737   4.052   3.536 -0.4962 -0.2672  0.0648
    1SOL    HW3 8379   2.712   4.120   3.403 -1.1437 -0.3013  0.1704
    1SOL    MW4 8380   2.731   4.049   3.449 -0.1113 -0.1221  0.0293
    1SOL     OW 8381   2.652   4.278   3.370  0.0973  0.7070  0.0122
    1SOL    HW2 8382   2.734   4.318   3.398 -0.1784  0.3155  1.4268
    1SOL    HW3 8383   2.584   4.331   3.413 -0.3254 -0.2337  0.4967
    1SOL    MW4 8384   2.654   4.291   3.379  0.0052  0.5307  0.2627
    1SOL     OW 8385   2.888   4.421   3.444 -0.4123 -0.1086 -0.1481
    1SOL    HW2 8386   2.896   4.430   3.539 -1.5746 -0.0243 -0.0483
    1SOL    HW3 8387   2.888   4.510   3.411 -0.3468 -0.1279 -0.2031
    1SOL    MW4 8388   2.889   4.434   3.452 -0.5569 -0.0997 -0.1421
    1SOL     OW 8389   3.384   0.018   3.369  0.1551  0.2178  0.3801
    1SOL    HW2 8390   3.297   0.043   3.400 -0.0336  0.4574 -0.3209
    1SOL    HW3 8391   3.371  -0.003   3.276  0.8638  0.3732  0.2403
    1SOL    MW4 8392   3.371   0.019   3.361  0.2234  0.2699  0.2689
    1SOL     OW 8393   3.145   0.098   3.466  0.5088 -0.3396 -0.6597
    1SOL    HW2 8394   3.137   0.191   3.444  0.5428  0.0051  0.6792
    1SOL    HW3 8395   3.060   0.060   3.441  0.5500  0.0232 -1.3473
    1SOL    MW4 8396   3.133   0.105   3.460  0.5186 -0.2462 -0.5739
    1SOL     OW 8397   3.158   0.369   3.403  0.3782  0.2530  0.1526
    1SOL    HW2 8398   3.078   0.420   3.420  0.4670  0.4338  0.0326
    1SOL    HW3 8399   3.163   0.365   3.307 -0.2046 -0.8904  0.1631
    1SOL    MW4 8400   3.148   0.375   3.393  0.3130  0.1260  0.1380
    1SOL     OW 8401   3.406   0.474   3.506 -0.1224  0.1889  0.1162
    1SOL    HW2 8402   3.404   0.499   3.598 -0.0745  0.7211 -0.0283
    1SOL    HW3 8403   3.329   0.418   3.494  1.7075 -2.7108  1.2892
    1SOL    MW4 8404   3.395   0.470   3.516  0.1252 -0.1235  0.2520
    1SOL     OW 8405   3.347   0.729   3.365  0.4013 -0.2769  0.3818
    1SOL    HW2 8406   3.417   0.791   3.384  2.1910 -1.1876 -2.6763
    1SOL    HW3 8407   3.363   0.656   3.424  0.8888  0.3408  1.0224
    1SOL    MW4 8408   3.358   0.728   3.375  0.7019 -0.3156  0.0629
    1SOL     OW 8409   3.116   0.821   3.529 -0.1008  0.2286 -0.2426
    1SOL    HW2 8410   3.114   0.916   3.514  0.0603 -0.0868 -2.3502
    1SOL    HW3 8411   3.194   0.791   3.483 -0.1850 -0.9597  0.3554
    1SOL    MW4 8412   3.126   0.830   3.521 -0.0906  0.0302 -0.4420
    1SOL     OW 8413   3.122   1.093   3.440 -0.0407  0.2161 -0.4297
    1SOL    HW2 8414   3.191   1.147   3.478  1.0424 -0.8711 -0.7973
    1SOL    HW3 8415   3.118   1.121   3.348 -0.2287  0.4300 -0.3546
    1SOL    MW4 8416   3.131   1.104   3.433  0.0770  0.1009 -0.4685
    1SOL     OW 8417   3.357   1.261   3.507  0.2205 -0.1606  0.8083
    1SOL    HW2 8418   3.427   1.207   3.470 -2.3997 -2.3450 -1.2993
    1SOL    HW3 8419   3.356   1.340   3.453  1.6656  0.3329  1.4890
    1SOL    MW4 8420   3.366   1.264   3.495  0.0653 -0.3837  0.6199
    1SOL     OW 8421   3.364   1.541   3.418  0.0824  0.0063  0.0210
    1SOL    HW2 8422   3.436   1.587   3.462  0.5884  0.4020 -1.2075
    1SOL    HW3 8423   3.285   1.580   3.455  0.4874 -0.1563  1.0908
    1SOL    MW4 8424   3.363   1.552   3.429  0.2027  0.0371  0.0000
    1SOL     OW 8425   3.129   1.657   3.481 -0.1765  0.3496  0.3364
    1SOL    HW2 8426   3.124   1.745   3.444  1.3407 -0.0416 -0.8447
    1SOL    HW3 8427   3.060   1.608   3.436  0.3643  0.3890 -0.5400
    1SOL    MW4 8428   3.119   1.663   3.470  0.0951  0.3031  0.0648
    1SOL     OW 8429   3.134   1.915   3.348 -0.1053 -0.4077  0.0764
    1SOL    HW2 8430   3.065   1.978   3.368  0.1134 -0.1821  0.1113
    1SOL    HW3 8431   3.147   1.922   3.254  0.6881  0.3818  0.2427
    1SOL    MW4 8432   3.127   1.924   3.338  0.0284 -0.2737  0.1028
    1SOL     OW 8433   3.365   2.024   3.444  0.1187 -0.3056 -0.1594
    1SOL    HW2 8434   3.364   2.110   3.402 -2.8261  0.3359  1.1754
    1SOL    HW3 8435   3.288   1.979   3.410  0.6069 -1.7338  0.5704
    1SOL    MW4 8436   3.355   2.029   3.434 -0.2053 -0.4096  0.1132
    1SOL     OW 8437   3.370   2.286   3.356 -0.2721 -0.1041  0.2624
    1SOL    HW2 8438   3.444   2.334   3.394 -0.5232 -0.4931  1.2542
    1SOL    HW3 8439   3.292   2.334   3.386 -0.4609 -0.2173 -0.0406
    1SOL    MW4 8440   3.369   2.299   3.365 -0.3302 -0.1705  0.3533
    1SOL     OW 8441   3.165   2.432   3.453 -0.2724 -0.1907  0.5770
    1SOL    HW2 8442   3.182   2.524   3.431  0.5658 -0.2239  1.0704
    1SOL    HW3 8443   3.076   2.416   3.422  0.2041  0.2927 -1.1027
    1SOL    MW4 8444   3.156   2.442   3.446 -0.0992 -0.1311  0.4203
    1SOL     OW 8445   3.197   2.681   3.372  0.5034  0.0208 -0.0711
    1SOL    HW2 8446   3.268   2.712   3.429  1.0535  0.5242 -1.0079
    1SOL    HW3 8447   3.119   2.724   3.405  1.1018  1.6601 -0.7574
    1SOL    MW4 8448   3.196   2.690   3.384  0.6549  0.3033 -0.2851
    1SOL     OW 8449   3.413   2.804   3.495  0.3493  0.2835 -0.2558
    1SOL    HW2 8450   3.488   2.758   3.456 -1.2072 -0.9367 -1.8808
    1SOL    HW3 8451   3.417   2.892   3.457  0.6775  0.0691 -0.7299
    1SOL    MW4 8452   3.424   2.809   3.485  0.1872  0.0942 -0.5329
    1SOL     OW 8453   3.409   3.068   3.398 -0.1014  0.0102  0.1018
    1SOL    HW2 8454   3.486   3.122   3.414  1.0262 -1.3162 -0.6917
    1SOL    HW3 8455   3.335   3.125   3.418  1.0793  1.2188  1.1736
    1SOL    MW4 8456   3.410   3.083   3.403  0.2031 -0.0052  0.1388
    1SOL     OW 8457   3.177   3.206   3.456  0.2340  0.2559 -0.3569
    1SOL    HW2 8458   3.181   3.294   3.417 -0.4387 -0.4149 -1.9642
    1SOL    HW3 8459   3.093   3.171   3.426  0.5983 -1.0188  0.1253
    1SOL    MW4 8460   3.166   3.213   3.447  0.1931 -0.0007 -0.5054
    1SOL     OW 8461   3.132   3.471   3.349 -0.3638 -0.2859  0.1080
    1SOL    HW2 8462   3.065   3.522   3.395 -0.6090 -1.0567  0.6104
    1SOL    HW3 8463   3.119   3.494   3.257 -1.7286 -0.8809  0.1368
    1SOL    MW4 8464   3.121   3.481   3.343 -0.5760 -0.4661  0.1781
    1SOL     OW 8465   3.364   3.595   3.469 -0.0504  0.7454 -0.0162
    1SOL    HW2 8466   3.364   3.688   3.448  1.1495  0.4228 -1.4880
    1SOL    HW3 8467   3.282   3.562   3.432 -0.2783  1.1340  0.1446
    1SOL    MW4 8468   3.353   3.603   3.462  0.0780  0.7544 -0.1891
    1SOL     OW 8469   3.389   3.858   3.383  0.1399  0.5698 -0.6626
    1SOL    HW2 8470   3.473   3.894   3.411  0.9414  0.4005 -2.7840
    1SOL    HW3 8471   3.324   3.916   3.423  1.2415  0.6576  1.0576
    1SOL    MW4 8472   3.391   3.870   3.392  0.3910  0.5591 -0.7157
    1SOL     OW 8473   3.166   4.017   3.472 -0.4133 -0.0740  0.5929
    1SOL    HW2 8474   3.163   4.012   3.568 -0.2249 -0.7023  0.5679
    1SOL    HW3 8475   3.162   4.110   3.453 -0.0159  0.0781  1.2318
    1SOL    MW4 8476   3.165   4.028   3.482 -0.3359 -0.1369  0.6740
    1SOL     OW 8477   3.126   4.281   3.366  0.2782  0.4236  0.1216
    1SOL    HW2 8478   3.205   4.323   3.400  0.3585  0.5484 -0.2248
    1SOL    HW3 8479   3.055   4.322   3.416  0.3484  1.0374 -0.2704
    1SOL    MW4 8480   3.127   4.292   3.377  0.2980  0.5217  0.0241
    1SOL     OW 8481   3.348   4.438   3.467 -0.3625  0.1690  0.3394
    1SOL    HW2 8482   3.374   4.439   3.559 -1.7294  1.8923  0.7374
    1SOL    HW3 8483   3.367   4.527   3.437 -0.6969 -0.1569 -0.8294
    1SOL    MW4 8484   3.354   4.450   3.475 -0.5870  0.3533  0.2379
    1SOL     OW 8485   3.798   4.651   3.456 -0.5128 -0.1830 -0.1114
    1SOL    HW2 8486   3.731   4.717   3.474 -0.6329 -0.1898 -0.5412
    1SOL    HW3 8487   3.809   4.652   3.361  0.4154  0.1365 -0.0132
    1SOL    MW4 8488   3.791   4.660   3.446 -0.4060 -0.1416 -0.1552
    1SOL     OW 8489   3.593   0.173   3.491  0.1176  0.6796 -0.0619
    1SOL    HW2 8490   3.597   0.253   3.439  0.4901  0.6121 -0.1424
    1SOL    HW3 8491   3.527   0.119   3.447  2.5935 -0.6559 -2.3499
    1SOL    MW4 8492   3.585   0.176   3.478  0.4933  0.4945 -0.3746
    1SOL     OW 8493   3.606   0.391   3.322 -0.3071 -0.0993 -0.3053
    1SOL    HW2 8494   3.686   0.409   3.371 -1.4256  1.2105  1.1004
    1SOL    HW3 8495   3.537   0.433   3.373 -1.7898 -0.5388 -1.9037
    1SOL    MW4 8496   3.607   0.399   3.335 -0.6502  0.0155 -0.3307
    1SOL     OW 8497   3.790   0.472   3.506  0.4107 -0.7400 -0.0741
    1SOL    HW2 8498   3.756   0.477   3.596 -0.7266 -0.9806 -0.4850
    1SOL    HW3 8499   3.881   0.443   3.517  0.2875 -0.7599  0.9969
    1SOL    MW4 8500   3.798   0.469   3.519  0.2439 -0.7744  0.0129
    1SOL     OW 8501   3.774   0.729   3.374  0.0514  0.0854  0.4378
    1SOL    HW2 8502   3.841   0.786   3.413  0.4714  0.4078 -0.7424
    1SOL    HW3 8503   3.782   0.647   3.423  1.8471 -0.1458 -0.1822
    1SOL    MW4 8504   3.784   0.726   3.386  0.3438  0.0974  0.2003
    1SOL     OW 8505   3.559   0.881   3.449  0.5784 -0.5108  0.0151
    1SOL    HW2 8506   3.566   0.870   3.544  1.4337 -1.4810 -0.1514
    1SOL    HW3 8507   3.634   0.834   3.414 -0.5765 -1.4877 -1.2269
    1SOL    MW4 8508   3.570   0.873   3.457  0.5388 -0.7676 -0.1709
    1SOL     OW 8509   3.592   1.154   3.410 -0.4975 -0.9161  0.1917
    1SOL    HW2 8510   3.584   1.059   3.418  0.6397 -1.0097  0.2700
    1SOL    HW3 8511   3.597   1.170   3.316 -0.9396 -0.9129  0.1689
    1SOL    MW4 8512   3.592   1.143   3.399 -0.4055 -0.9280  0.1991
    1SOL     OW 8513   3.806   1.297   3.522  0.0461  0.2996  0.4751
    1SOL    HW2 8514   3.799   1.296   3.617  0.2043 -0.9081  0.4873
    1SOL    HW3 8515   3.726   1.255   3.492 -0.2093  1.0784  0.0563
    1SOL    MW4 8516   3.795   1.291   3.530  0.0334  0.2428  0.4215
    1SOL     OW 8517   3.800   1.545   3.427 -0.2749 -0.2552 -0.4043
    1SOL    HW2 8518   3.883   1.578   3.462 -1.3242  0.7653  1.2156
    1SOL    HW3 8519   3.794   1.456   3.460  0.3891 -0.4973 -0.9169
    1SOL    MW4 8520   3.810   1.538   3.436 -0.3259 -0.1525 -0.2582
    1SOL     OW 8521   3.589   1.666   3.531  0.6656  0.3849  0.1347
    1SOL    HW2 8522   3.590   1.748   3.480 -0.1488  0.2105 -0.1687
    1SOL    HW3 8523   3.661   1.615   3.494 -0.1120  0.1373 -1.0606
    1SOL    MW4 8524   3.599   1.670   3.519  0.4551  0.3291 -0.0629
    1SOL     OW 8525   3.596   1.897   3.372  0.3671 -0.2709 -0.1316
    1SOL    HW2 8526   3.657   1.953   3.419  0.1430 -0.0524 -0.0966
    1SOL    HW3 8527   3.509   1.934   3.392  0.4080  1.3292 -2.6494
    1SOL    MW4 8528   3.592   1.909   3.381  0.3431 -0.0309 -0.4590
    1SOL     OW 8529   3.805   2.040   3.467 -0.0235 -0.0850  0.0777
    1SOL    HW2 8530   3.820   2.058   3.560  2.1170 -1.8328  0.1281
    1SOL    HW3 8531   3.876   1.980   3.443 -0.8695 -0.0941 -2.5530
    1SOL    MW4 8532   3.817   2.035   3.476  0.1471 -0.3166 -0.2627
    1SOL     OW 8533   3.824   2.293   3.358  0.2251  0.2031 -0.5989
    1SOL    HW2 8534   3.891   2.335   3.411  1.7015 -0.3347 -1.9981
    1SOL    HW3 8535   3.831   2.200   3.378 -1.5630  0.3516  0.8436
    1SOL    MW4 8536   3.834   2.286   3.367  0.1838  0.1516 -0.5934
    1SOL     OW 8537   3.590   2.397   3.495  0.0227  0.3223  0.1187
    1SOL    HW2 8538   3.605   2.489   3.471 -0.7541  0.0361 -1.4737
    1SOL    HW3 8539   3.671   2.352   3.471  0.0415  0.4111  0.0162
    1SOL    MW4 8540   3.602   2.403   3.489 -0.0772  0.2961 -0.1049
    1SOL     OW 8541   3.640   2.660   3.390  0.0673 -0.1250 -0.5119
    1SOL    HW2 8542   3.702   2.722   3.429  0.5652 -0.5026 -0.6928
    1SOL    HW3 8543   3.643   2.679   3.296 -2.0082  1.5735 -0.2581
    1SOL    MW4 8544   3.649   2.670   3.383 -0.1409  0.0494 -0.5023
    1SOL     OW 8545   3.852   2.822   3.468 -0.4191  0.3649  0.4250
    1SOL    HW2 8546   3.867   2.856   3.556 -1.5420 -0.3818  0.9057
    1SOL    HW3 8547   3.838   2.900   3.414 -0.9112  0.7705  1.1331
    1SOL    MW4 8548   3.852   2.837   3.472 -0.6323  0.3200  0.5817
    1SOL     OW 8549   3.847   3.085   3.349  0.6933 -0.1247 -0.0043
    1SOL    HW2 8550   3.930   3.116   3.385  0.6545  0.9888 -0.8232
    1SOL    HW3 8551   3.854   3.103   3.255 -0.1715 -0.7267 -0.1873
    1SOL    MW4 8552   3.859   3.092   3.341  0.5741 -0.0570 -0.1364
    1SOL     OW 8553   3.619   3.263   3.457 -0.2431  0.0200  0.3248
    1SOL    HW2 8554   3.636   3.344   3.409  1.0942 -0.5370 -0.1660
    1SOL    HW3 8555   3.696   3.208   3.439 -0.9164 -1.1682  1.0397
    1SOL    MW4 8556   3.632   3.267   3.449 -0.1554 -0.2103  0.3543
    1SOL     OW 8557   3.631   3.540   3.390 -0.1166 -0.2765  0.2571
    1SOL    HW2 8558   3.546   3.557   3.430 -0.5905 -2.6072  0.3173
    1SOL    HW3 8559   3.618   3.555   3.297 -0.4799 -0.2554  0.3135
    1SOL    MW4 8560   3.618   3.545   3.383 -0.2272 -0.5813  0.2725
    1SOL     OW 8561   3.863   3.657   3.480  0.7717 -0.1313 -0.0723
    1SOL    HW2 8562   3.865   3.635   3.573  1.0243 -1.5538 -0.4088
    1SOL    HW3 8563   3.783   3.616   3.447  1.3531 -0.7389 -0.7435
    1SOL    MW4 8564   3.853   3.649   3.488  0.8817 -0.3991 -0.2055
    1SOL     OW 8565   3.839   3.904   3.371 -0.0853 -0.2255  0.1378
    1SOL    HW2 8566   3.755   3.946   3.391  0.3633  0.1486  1.2615
    1SOL    HW3 8567   3.837   3.823   3.422  0.1225 -0.3634 -0.0712
    1SOL    MW4 8568   3.828   3.899   3.380  0.0012 -0.1943  0.2584
    1SOL     OW 8569   3.606   4.010   3.460  0.1087  0.1910  0.3772
    1SOL    HW2 8570   3.611   4.012   3.555 -0.7481  0.8596  0.4130
    1SOL    HW3 8571   3.579   4.098   3.435  2.6153  0.7228 -0.6300
    1SOL    MW4 8572   3.603   4.022   3.469  0.3262  0.3500  0.2491
    1SOL     OW 8573   3.546   4.278   3.385 -0.6830  0.1784  0.4414
    1SOL    HW2 8574   3.489   4.351   3.411 -0.3009  0.6962 -0.1438
    1SOL    HW3 8575   3.555   4.287   3.290 -0.9453 -0.8697  0.3092
    1SOL    MW4 8576   3.540   4.289   3.376 -0.6671  0.1082  0.3469
    1SOL     OW 8577   3.745   4.395   3.552  0.1349  0.0975  0.0091
    1SOL    HW2 8578   3.683   4.344   3.500  1.2155 -0.5776 -0.6401
    1SOL    HW3 8579   3.749   4.480   3.508  1.4682 -0.6568 -1.3567
    1SOL    MW4 8580   3.737   4.399   3.540  0.4535 -0.0911 -0.2568
    1SOL     OW 8581   4.266   4.633   3.390 -0.2318  0.6081  0.2550
    1SOL    HW2 8582   4.267   4.541   3.419 -0.4839  0.6158  0.2922
    1SOL    HW3 8583   4.334   4.675   3.442 -0.5006  0.5636  0.6529
    1SOL    MW4 8584   4.275   4.626   3.401 -0.3009  0.6037  0.3126
    1SOL     OW 8585   4.039   0.086   3.521  0.6146 -0.5395  0.5774
    1SOL    HW2 8586   4.114   0.042   3.480  1.3487 -0.2492  1.5957
    1SOL    HW3 8587   3.963   0.039   3.487  1.1794 -0.1492 -1.3245
    1SOL    MW4 8588   4.039   0.074   3.511  0.7854 -0.4497  0.4606
    1SOL     OW 8589   4.065   0.368   3.465  0.1033  0.0368 -0.5331
    1SOL    HW2 8590   4.071   0.275   3.484  1.3188  0.0892 -0.6203
    1SOL    HW3 8591   4.053   0.373   3.370  0.6082 -0.0182 -0.6022
    1SOL    MW4 8592   4.064   0.356   3.455  0.3300  0.0364 -0.5536
    1SOL     OW 8593   4.296   0.508   3.474 -0.4879 -0.0961  0.2003
    1SOL    HW2 8594   4.274   0.598   3.448  0.7617  0.3374  0.6279
    1SOL    HW3 8595   4.211   0.463   3.477 -0.9379  0.5879 -1.7999
    1SOL    MW4 8596   4.282   0.514   3.471 -0.3824  0.0514 -0.0074
    1SOL     OW 8597   4.224   0.771   3.406  0.1226  0.2731  0.6648
    1SOL    HW2 8598   4.286   0.821   3.460 -1.0927  2.3028  0.2414
    1SOL    HW3 8599   4.254   0.784   3.316 -0.8068  1.1196  0.4715
    1SOL    MW4 8600   4.236   0.779   3.401 -0.1602  0.6527  0.5832
    1SOL     OW 8601   3.990   0.878   3.491 -0.3486  0.2419  0.1268
    1SOL    HW2 8602   4.001   0.967   3.459  0.3074  0.1715  0.1498
    1SOL    HW3 8603   4.070   0.832   3.465 -0.7847 -0.4091 -0.0987
    1SOL    MW4 8604   4.002   0.883   3.484 -0.3195  0.1468  0.1001
    1SOL     OW 8605   3.996   1.145   3.394 -0.3611  0.3841  0.2092
    1SOL    HW2 8606   4.080   1.189   3.410  0.2486 -1.7410  3.4965
    1SOL    HW3 8607   3.933   1.196   3.445 -0.2898 -0.4405  1.1329
    1SOL    MW4 8608   3.999   1.157   3.403 -0.2716 -0.0050  0.7646
    1SOL     OW 8609   4.224   1.276   3.462 -0.0457  0.1316  0.0885
    1SOL    HW2 8610   4.238   1.367   3.438 -1.1033  0.1094 -0.6237
    1SOL    HW3 8611   4.312   1.240   3.470  0.3652  1.0154 -0.3911
    1SOL    MW4 8612   4.237   1.283   3.460 -0.1311  0.2452 -0.0689
    1SOL     OW 8613   4.276   1.545   3.396  0.2850 -0.1814 -0.5513
    1SOL    HW2 8614   4.202   1.594   3.431  0.2243 -0.8107  0.2281
    1SOL    HW3 8615   4.264   1.546   3.302  0.5759  1.7642 -0.5853
    1SOL    MW4 8616   4.265   1.552   3.388  0.3157 -0.0076 -0.4530
    1SOL     OW 8617   4.049   1.640   3.510  0.2044  0.1758 -0.5127
    1SOL    HW2 8618   4.052   1.648   3.606 -0.8356  1.3701 -0.5569
    1SOL    HW3 8619   4.043   1.730   3.479  0.1720 -0.2218 -1.6864
    1SOL    MW4 8620   4.048   1.653   3.519  0.0629  0.2809 -0.6733
    1SOL     OW 8621   4.060   1.903   3.419  0.1308  0.0657  0.1137
    1SOL    HW2 8622   4.132   1.963   3.435  1.6048 -1.5654 -0.2122
    1SOL    HW3 8623   4.046   1.907   3.324 -0.5590  0.7658  0.2420
    1SOL    MW4 8624   4.068   1.911   3.409  0.2341 -0.0572  0.0877
    1SOL     OW 8625   4.280   2.066   3.511 -0.4071  0.0362 -0.2029
    1SOL    HW2 8626   4.257   2.157   3.488 -0.0624 -0.2331 -1.6654
    1SOL    HW3 8627   4.360   2.049   3.463  0.0218 -0.7630  0.7862
    1SOL    MW4 8628   4.287   2.076   3.502 -0.3047 -0.1047 -0.2651
    1SOL     OW 8629   4.292   2.354   3.432 -0.5308  0.4484  0.5292
    1SOL    HW2 8630   4.205   2.382   3.456 -0.3822  1.4813 -0.1049
    1SOL    HW3 8631   4.287   2.340   3.337 -0.0395  0.3888  0.5106
    1SOL    MW4 8632   4.280   2.356   3.422 -0.4463  0.5767  0.4432
    1SOL     OW 8633   4.028   2.422   3.517 -0.0687  0.0639 -0.1616
    1SOL    HW2 8634   4.034   2.434   3.612  0.5650  0.9448 -0.3113
    1SOL    HW3 8635   4.027   2.511   3.481 -1.2942 -0.2415 -0.9330
    1SOL    MW4 8636   4.028   2.435   3.525 -0.1473  0.1397 -0.2832
    1SOL     OW 8637   4.085   2.690   3.401 -0.1834 -0.0997 -0.3009
    1SOL    HW2 8638   4.161   2.740   3.430 -0.8636  1.7208 -1.5260
    1SOL    HW3 8639   4.010   2.741   3.430 -0.9236 -1.2187 -0.2201
    1SOL    MW4 8640   4.085   2.704   3.408 -0.3705 -0.0074 -0.4518
    1SOL     OW 8641   4.301   2.844   3.482 -0.1307  0.1007 -0.0340
    1SOL    HW2 8642   4.316   2.863   3.574  0.6006 -0.8226  0.0403
    1SOL    HW3 8643   4.378   2.795   3.454 -0.3744  0.3060 -1.1203
    1SOL    MW4 8644   4.313   2.840   3.490 -0.0668  0.0060 -0.1678
    1SOL     OW 8645   4.327   3.099   3.373  0.3204 -0.0837 -0.0337
    1SOL    HW2 8646   4.332   3.011   3.409 -0.7748  0.2346  0.9251
    1SOL    HW3 8647   4.305   3.086   3.281 -0.1589 -0.8010  0.1817
    1SOL    MW4 8648   4.325   3.086   3.365  0.1121 -0.1361  0.1214
    1SOL     OW 8649   4.060   3.222   3.474 -0.1715 -0.2577  0.2068
    1SOL    HW2 8650   4.050   3.305   3.429  1.3071 -0.8552 -1.2653
    1SOL    HW3 8651   4.146   3.190   3.447  0.1387 -1.3079  2.3405
    1SOL    MW4 8652   4.070   3.228   3.465  0.0644 -0.4752  0.2940
    1SOL     OW 8653   4.060   3.482   3.363  0.4373  0.2517 -0.0194
    1SOL    HW2 8654   4.138   3.512   3.410  0.4617 -0.7900  0.6317
    1SOL    HW3 8655   3.989   3.535   3.398  0.5710 -0.0309  0.6828
    1SOL    MW4 8656   4.061   3.493   3.374  0.4582  0.0770  0.1590
    1SOL     OW 8657   4.289   3.596   3.485  0.0352  0.0973  0.3925
    1SOL    HW2 8658   4.291   3.600   3.581 -0.7123  0.1852  0.4110
    1SOL    HW3 8659   4.273   3.686   3.458  0.4029  0.0973  0.1812
    1SOL    MW4 8660   4.287   3.608   3.494 -0.0153  0.1090  0.3672
    1SOL     OW 8661   4.247   3.840   3.371  0.4864  0.4623 -0.3561
    1SOL    HW2 8662   4.325   3.867   3.419  1.1811  0.5033 -1.4962
    1SOL    HW3 8663   4.265   3.862   3.280 -0.8002  0.3434 -0.6552
    1SOL    MW4 8664   4.260   3.846   3.365  0.4082  0.4520 -0.5462
    1SOL     OW 8665   4.063   4.029   3.454  0.4742 -0.1093 -0.1718
    1SOL    HW2 8666   4.131   3.964   3.442  1.3173  0.9701 -1.4141
    1SOL    HW3 8667   3.982   3.984   3.431  0.9871 -0.8669 -0.5158
    1SOL    MW4 8668   4.061   4.015   3.449  0.6528 -0.0672 -0.3815
    1SOL     OW 8669   3.980   4.290   3.406  0.1448  0.6156 -0.1289
    1SOL    HW2 8670   4.000   4.199   3.427 -1.0879  0.4389  0.3280
    1SOL    HW3 8671   3.925   4.320   3.479 -2.8816  0.4721 -2.2752
    1SOL    MW4 8672   3.975   4.282   3.418 -0.4170  0.5736 -0.3517
    1SOL     OW 8673   4.235   4.377   3.478  0.5523  0.2630 -0.2895
    1SOL    HW2 8674   4.245   4.379   3.573  1.7257 -0.1240 -0.3985
    1SOL    HW3 8675   4.143   4.356   3.464  0.5319 -0.4004  0.7736
    1SOL    MW4 8676   4.224   4.374   3.489  0.7038  0.1245 -0.1636
    1SOL     OW 8677   0.205   4.648   3.867  0.1046 -0.3762 -0.5054
    1SOL    HW2 8678   0.209   4.653   3.962  1.4395 -0.2582 -0.5662
    1SOL    HW3 8679   0.124   4.694   3.844  0.0856  0.1069  0.5259
    1SOL    MW4 8680   0.195   4.655   3.876  0.2782 -0.2971 -0.3769
    1SOL     OW 8681   4.471   0.109   3.772  0.4796  0.0374 -0.0899
    1SOL    HW2 8682   4.476   0.203   3.790  2.1572 -0.0128 -0.1767
    1SOL    HW3 8683   4.485   0.101   3.678 -1.3904 -0.1849 -0.3541
    1SOL    MW4 8684   4.474   0.120   3.762  0.4544  0.0015 -0.1359
    1SOL     OW 8685   4.474   0.374   3.851  0.0718  0.2332 -0.3724
    1SOL    HW2 8686   4.406   0.431   3.814 -0.8355 -0.2017  0.6029
    1SOL    HW3 8687   4.556   0.410   3.817 -0.4177  2.5906  0.8176
    1SOL    MW4 8688   4.476   0.386   3.842 -0.1125  0.4869 -0.0868
    1SOL     OW 8689   0.225   0.491   3.788 -0.5365  0.1149 -0.0415
    1SOL    HW2 8690   0.202   0.580   3.816  0.4284  0.0560  1.0320
    1SOL    HW3 8691   0.248   0.500   3.696 -1.1070  0.8601 -0.1158
    1SOL    MW4 8692   0.225   0.504   3.780 -0.4845  0.2054  0.0904
    1SOL     OW 8693   0.194   0.729   3.887 -0.0214 -0.5185 -0.0373
    1SOL    HW2 8694   0.202   0.735   3.982  0.5476 -1.2322 -0.0406
    1SOL    HW3 8695   0.112   0.776   3.867  1.3239  2.1343  0.4958
    1SOL    MW4 8696   0.184   0.736   3.897  0.2312 -0.2626  0.0329
    1SOL     OW 8697   4.452   0.858   3.805  0.0375 -0.1470  0.3845
    1SOL    HW2 8698   4.367   0.827   3.837 -0.3183  0.3678 -0.0574
    1SOL    HW3 8699   4.451   0.952   3.823  1.1688 -0.3886  1.8451
    1SOL    MW4 8700   4.441   0.867   3.812  0.1397 -0.1109  0.5188
    1SOL     OW 8701   4.467   1.130   3.860  0.4941  0.0349  0.0600
    1SOL    HW2 8702   4.383   1.166   3.831  0.9317 -0.0247 -1.2926
    1SOL    HW3 8703   4.533   1.190   3.824  1.0862 -0.5768  0.1193
    1SOL    MW4 8704   4.465   1.143   3.851  0.6299 -0.0536 -0.1104
    1SOL     OW 8705   0.202   1.268   3.789 -0.0054 -0.0559  0.1573
    1SOL    HW2 8706   0.201   1.355   3.829 -0.4132 -0.5623  1.2625
    1SOL    HW3 8707   0.183   1.284   3.696  0.2831  1.0627  0.2836
    1SOL    MW4 8708   0.199   1.282   3.782 -0.0211  0.0248  0.3200
    1SOL     OW 8709   0.226   1.544   3.855 -0.0611  0.8150 -0.3540
    1SOL    HW2 8710   0.219   1.543   3.950 -0.6868 -1.6190 -0.3804
    1SOL    HW3 8711   0.157   1.603   3.826 -0.7568  0.5087  0.6637
    1SOL    MW4 8712   0.216   1.551   3.863 -0.2355  0.4535 -0.2232
    1SOL     OW 8713   0.016   1.708   3.745 -0.7321 -0.1508  0.6904
    1SOL    HW2 8714   0.022   1.798   3.775  0.5439 -0.4533  1.3694
    1SOL    HW3 8715   0.005   1.716   3.650  3.2325  0.7054  0.1998
    1SOL    MW4 8716   0.015   1.721   3.736 -0.0407 -0.0778  0.7153
    1SOL     OW 8717   0.064   1.955   3.884  0.0297 -0.4867  0.0869
    1SOL    HW2 8718   0.063   1.931   3.976  0.0549 -0.1979  0.1600
    1SOL    HW3 8719  -0.023   1.991   3.867  0.0962 -0.3481  0.0449
    1SOL    MW4 8720   0.052   1.956   3.894  0.0419 -0.4301  0.0911
    1SOL     OW 8721   0.257   2.087   3.754 -0.1524 -0.3195  0.2106
    1SOL    HW2 8722   0.255   2.168   3.805  1.2133 -0.9304  1.2637
    1SOL    HW3 8723   0.192   2.031   3.796 -0.3690 -0.1437  0.1128
    1SOL    MW4 8724   0.248   2.090   3.766 -0.0008 -0.3772  0.3364
    1SOL     OW 8725   0.209   2.333   3.852 -0.1155  0.0297 -0.2610
    1SOL    HW2 8726   0.215   2.346   3.947  1.0054  0.7990 -0.4274
    1SOL    HW3 8727   0.125   2.371   3.828 -0.2086  0.2305  0.3726
    1SOL    MW4 8728   0.199   2.340   3.862  0.0201  0.1576 -0.1993
    1SOL     OW 8729   4.489   2.468   3.775 -0.0260  0.2490  0.0830
    1SOL    HW2 8730   4.424   2.417   3.823  0.6410  1.1530  2.0031
    1SOL    HW3 8731   4.500   2.548   3.827  1.3250  0.8994 -1.1560
    1SOL    MW4 8732   4.482   2.472   3.788  0.2403  0.4539  0.1729
    1SOL     OW 8733   0.013   2.710   3.891 -0.0334  0.0778 -0.0885
    1SOL    HW2 8734   0.011   2.729   3.984 -0.0296  1.5818 -0.3810
    1SOL    HW3 8735   0.085   2.763   3.857 -0.4308  0.0230 -1.0477
    1SOL    MW4 8736   0.022   2.720   3.899 -0.0853  0.2687 -0.2537
    1SOL     OW 8737   0.246   2.831   3.797 -0.1508 -0.0471  0.1361
    1SOL    HW2 8738   0.315   2.767   3.815  1.1145  1.1975 -0.2424
    1SOL    HW3 8739   0.242   2.835   3.701 -1.6343 -1.0393  0.1377
    1SOL    MW4 8740   0.255   2.823   3.786 -0.1796 -0.0138  0.0863
    1SOL     OW 8741   0.253   3.098   3.882  0.2323  0.4339 -0.3631
    1SOL    HW2 8742   0.256   3.109   3.977 -0.6835  1.1546 -0.4039
    1SOL    HW3 8743   0.250   3.003   3.869  2.5682  0.2661  0.2351
    1SOL    MW4 8744   0.253   3.087   3.893  0.4197  0.5071 -0.2894
    1SOL     OW 8745   0.024   3.244   3.787 -0.3047  0.2299  0.0410
    1SOL    HW2 8746   0.105   3.204   3.818 -0.3395  0.5527  0.5446
    1SOL    HW3 8747   0.035   3.249   3.692 -0.9399 -2.4336 -0.2364
    1SOL    MW4 8748   0.036   3.239   3.778 -0.3931 -0.0792  0.0708
    1SOL     OW 8749   0.065   3.504   3.885  0.5147 -0.0815 -0.1472
    1SOL    HW2 8750   0.137   3.549   3.842  0.6226 -0.7865 -0.7217
    1SOL    HW3 8751   0.071   3.414   3.853 -0.3251 -0.2556  0.1752
    1SOL    MW4 8752   0.075   3.498   3.875  0.4182 -0.1976 -0.1807
    1SOL     OW 8753   0.277   3.609   3.766 -0.0841 -0.0805  0.0227
    1SOL    HW2 8754   0.355   3.593   3.818 -0.3860 -0.6488  0.3043
    1SOL    HW3 8755   0.235   3.685   3.807 -0.3198 -0.5229  0.6164
    1SOL    MW4 8756   0.281   3.617   3.778 -0.1550 -0.2139  0.1380
    1SOL     OW 8757   0.191   3.826   3.888 -0.0109 -0.1716 -0.3515
    1SOL    HW2 8758   0.203   3.830   3.983 -0.1176 -1.2452 -0.2803
    1SOL    HW3 8759   0.263   3.878   3.852 -0.0478  0.3528  0.3205
    1SOL    MW4 8760   0.202   3.833   3.896 -0.0298 -0.2441 -0.2532
    1SOL     OW 8761   4.470   3.974   3.797  0.0108 -0.1784  0.0640
    1SOL    HW2 8762   4.387   3.933   3.818 -0.1816  0.5466  0.7224
    1SOL    HW3 8763   4.536   3.919   3.839 -0.2215 -0.0390  0.6097
    1SOL    MW4 8764   4.468   3.961   3.805 -0.0453 -0.0644  0.2229
    1SOL     OW 8765   0.004   4.237   3.897  0.0820  0.2841  0.4659
    1SOL    HW2 8766   0.056   4.297   3.844 -2.9194  1.4185 -1.3795
    1SOL    HW3 8767   0.013   4.152   3.853 -0.1364  0.6146 -0.2227
    1SOL    MW4 8768   0.012   4.234   3.884 -0.3428  0.4773  0.1314
    1SOL     OW 8769   0.179   4.402   3.734 -0.0815  0.1415  0.1053
    1SOL    HW2 8770   0.252   4.348   3.764  0.2114 -0.0380 -0.9399
    1SOL    HW3 8771   0.184   4.481   3.788  0.0371 -0.4677  1.0077
    1SOL    MW4 8772   0.189   4.405   3.745 -0.0273  0.0372  0.0865
    1SOL     OW 8773   0.612   4.612   3.860 -0.4443  0.0825 -0.5880
    1SOL    HW2 8774   0.598   4.519   3.842 -1.0085  0.0044  0.2458
    1SOL    HW3 8775   0.559   4.657   3.795  0.9553 -0.1563 -1.9303
    1SOL    MW4 8776   0.603   4.605   3.849 -0.3340  0.0410 -0.6552
    1SOL     OW 8777   0.419   0.107   3.727 -0.3205  0.0796 -0.0230
    1SOL    HW2 8778   0.428   0.191   3.772  0.1679 -1.1701  2.2938
    1SOL    HW3 8779   0.344   0.065   3.769  0.1158 -1.1027 -0.3895
    1SOL    MW4 8780   0.410   0.113   3.739 -0.1985 -0.2412  0.2341
    1SOL     OW 8781   0.439   0.344   3.882 -0.1060  0.2676  0.7552
    1SOL    HW2 8782   0.506   0.387   3.828 -0.2569 -2.2146 -1.5279
    1SOL    HW3 8783   0.358   0.390   3.861 -0.0101 -0.1164 -0.4850
    1SOL    MW4 8784   0.437   0.356   3.872 -0.1133 -0.1106  0.2904
    1SOL     OW 8785   0.647   0.479   3.767 -0.1138  0.2971 -0.3767
    1SOL    HW2 8786   0.713   0.434   3.819  0.1597  0.0798 -0.9180
    1SOL    HW3 8787   0.650   0.570   3.798  1.7274  0.7038 -1.6837
    1SOL    MW4 8788   0.656   0.485   3.778  0.1652  0.3221 -0.6206
    1SOL     OW 8789   0.645   0.737   3.867  0.4732 -0.1521 -0.0366
    1SOL    HW2 8790   0.715   0.772   3.812 -0.4886  0.8024 -0.6735
    1SOL    HW3 8791   0.565   0.774   3.831 -0.3026 -0.6324  1.1456
    1SOL    MW4 8792   0.644   0.747   3.855  0.2440 -0.0895  0.0353
    1SOL     OW 8793   0.422   0.885   3.752  0.2939  0.5076 -0.0669
    1SOL    HW2 8794   0.412   0.966   3.802  0.4393  0.7126 -0.3678
    1SOL    HW3 8795   0.344   0.834   3.774  0.3726  0.5789  0.3951
    1SOL    MW4 8796   0.410   0.889   3.762  0.3235  0.5441 -0.0458
    1SOL     OW 8797   0.416   1.135   3.895  0.1069  0.0504 -0.0270
    1SOL    HW2 8798   0.495   1.170   3.854  0.7665 -1.2585  0.1145
    1SOL    HW3 8799   0.344   1.171   3.843  0.8545 -0.0854 -1.1620
    1SOL    MW4 8800   0.417   1.144   3.883  0.2925 -0.1401 -0.1578
    1SOL     OW 8801   0.652   1.290   3.782  0.0608 -0.0721  0.4885
    1SOL    HW2 8802   0.737   1.247   3.790  0.0142 -0.3233 -0.2811
    1SOL    HW3 8803   0.638   1.298   3.688 -0.8292 -0.1552  0.6081
    1SOL    MW4 8804   0.662   1.285   3.771 -0.0627 -0.1161  0.4027
    1SOL     OW 8805   0.649   1.538   3.896  0.0685 -0.0738 -0.0664
    1SOL    HW2 8806   0.733   1.573   3.864 -0.1517  0.6095  0.0914
    1SOL    HW3 8807   0.647   1.448   3.864  0.0387  0.4686 -1.6453
    1SOL    MW4 8808   0.660   1.531   3.887  0.0355  0.0879 -0.2537
    1SOL     OW 8809   0.452   1.670   3.759 -0.5304  0.2314  0.2962
    1SOL    HW2 8810   0.521   1.614   3.795 -0.6321  0.5723  1.0338
    1SOL    HW3 8811   0.371   1.621   3.775 -0.3506 -0.7368 -1.6908
    1SOL    MW4 8812   0.450   1.656   3.766 -0.5201  0.1487  0.1311
    1SOL     OW 8813   0.476   1.952   3.847  0.4609 -0.4971 -0.0692
    1SOL    HW2 8814   0.451   1.862   3.824  0.3210 -0.7799  1.1341
    1SOL    HW3 8815   0.406   2.006   3.811  0.2517 -0.9244 -0.3091
    1SOL    MW4 8816   0.463   1.947   3.839  0.4149 -0.5908  0.0577
    1SOL     OW 8817   0.720   2.044   3.761 -0.0663 -0.0792 -0.2598
    1SOL    HW2 8818   0.726   2.134   3.791 -0.4111  0.2750 -1.2558
    1SOL    HW3 8819   0.638   2.011   3.798 -0.2803  0.2186 -0.4787
    1SOL    MW4 8820   0.710   2.051   3.770 -0.1401  0.0069 -0.4201
    1SOL     OW 8821   0.690   2.274   3.887  0.3762 -0.3990 -0.5512
    1SOL    HW2 8822   0.758   2.331   3.852 -0.3322  0.1678 -1.0071
    1SOL    HW3 8823   0.608   2.312   3.856 -0.2495 -0.0127  1.5166
    1SOL    MW4 8824   0.688   2.286   3.879  0.2002 -0.2730 -0.3383
    1SOL     OW 8825   0.467   2.419   3.751 -0.8540 -0.0388 -0.4803
    1SOL    HW2 8826   0.379   2.390   3.773 -0.0949 -1.7716  0.4128
    1SOL    HW3 8827   0.469   2.421   3.655 -1.2533 -2.0407 -0.5582
    1SOL    MW4 8828   0.456   2.415   3.741 -0.8066 -0.5317 -0.3726
    1SOL     OW 8829   0.465   2.680   3.846  0.4046 -0.3643  1.0139
    1SOL    HW2 8830   0.550   2.720   3.829 -0.2415  0.5093 -0.1901
    1SOL    HW3 8831   0.467   2.597   3.798  0.3899 -0.1089  0.5696
    1SOL    MW4 8832   0.476   2.675   3.838  0.3174 -0.2151  0.7966
    1SOL     OW 8833   0.709   2.813   3.791 -0.3270 -0.3636  0.2141
    1SOL    HW2 8834   0.794   2.770   3.803  0.0446  0.6538  1.2368
    1SOL    HW3 8835   0.708   2.837   3.698  0.3245 -0.7666  0.0954
    1SOL    MW4 8836   0.720   2.810   3.780 -0.1920 -0.2823  0.3333
    1SOL     OW 8837   0.756   3.081   3.888  0.4148  0.1185  0.2114
    1SOL    HW2 8838   0.731   3.094   3.980 -1.0826 -0.1626 -0.1300
    1SOL    HW3 8839   0.728   2.991   3.869 -0.0576  0.4617 -0.7474
    1SOL    MW4 8840   0.749   3.071   3.898  0.1549  0.1266  0.0401
    1SOL     OW 8841   0.506   3.210   3.808  0.3834 -0.0023 -0.2006
    1SOL    HW2 8842   0.586   3.164   3.835 -0.3044 -1.9886 -1.5229
    1SOL    HW3 8843   0.435   3.151   3.833 -0.3794 -1.0401 -4.5343
    1SOL    MW4 8844   0.507   3.197   3.815  0.1920 -0.4013 -0.9468
    1SOL     OW 8845   0.487   3.470   3.891  0.0979 -0.1767  0.0088
    1SOL    HW2 8846   0.571   3.508   3.865  0.1822 -0.7807 -0.6061
    1SOL    HW3 8847   0.494   3.378   3.868 -0.9859 -0.0974 -0.6428
    1SOL    MW4 8848   0.499   3.463   3.885 -0.0340 -0.2458 -0.1583
    1SOL     OW 8849   0.720   3.592   3.802 -0.2861 -0.4713 -0.9652
    1SOL    HW2 8850   0.694   3.678   3.836  0.0728 -0.8384  0.2811
    1SOL    HW3 8851   0.713   3.600   3.707  1.8204  1.5950 -0.9739
    1SOL    MW4 8852   0.716   3.605   3.794  0.0392 -0.2470 -0.8020
    1SOL     OW 8853   0.625   3.858   3.877  0.0043  0.3351 -0.6314
    1SOL    HW2 8854   0.633   3.872   3.971 -0.4597 -0.1715 -0.5106
    1SOL    HW3 8855   0.701   3.901   3.839 -0.3225  1.3864 -0.1060
    1SOL    MW4 8856   0.636   3.865   3.884 -0.1001  0.4067 -0.5460
    1SOL     OW 8857   0.379   3.970   3.773  0.1429  0.2064 -0.1887
    1SOL    HW2 8858   0.464   3.938   3.806  0.6983  0.5884 -1.2269
    1SOL    HW3 8859   0.390   3.973   3.678 -1.0381  0.2770 -0.3273
    1SOL    MW4 8860   0.392   3.966   3.765  0.0604  0.2663 -0.3440
    1SOL     OW 8861   0.382   4.245   3.840  0.5027  0.0149 -0.5659
    1SOL    HW2 8862   0.461   4.278   3.798  0.5012 -1.2074 -1.5510
    1SOL    HW3 8863   0.386   4.150   3.827  0.1996 -0.3315  1.6540
    1SOL    MW4 8864   0.393   4.237   3.833  0.4625 -0.1917 -0.4029
    1SOL     OW 8865   0.648   4.325   3.773  0.3083  0.1529 -0.4651
    1SOL    HW2 8866   0.735   4.299   3.803  0.1086  0.0894  0.0610
    1SOL    HW3 8867   0.659   4.344   3.680  0.7548 -0.4783 -0.5439
    1SOL    MW4 8868   0.661   4.324   3.764  0.3409  0.0610 -0.4063
    1SOL     OW 8869   1.104   4.659   3.881 -0.0997 -0.1687 -0.0800
    1SOL    HW2 8870   1.185   4.706   3.861 -0.7568  1.0216 -0.0321
    1SOL    HW3 8871   1.104   4.584   3.822 -0.2576  1.2953 -2.0122
    1SOL    MW4 8872   1.114   4.655   3.871 -0.2072  0.1817 -0.3288
    1SOL     OW 8873   0.862   0.092   3.818  0.3244 -0.0682  0.2859
    1SOL    HW2 8874   0.937   0.038   3.843  1.1239  0.5222 -0.8004
    1SOL    HW3 8875   0.786   0.035   3.831  1.0475 -1.0299  0.3727
    1SOL    MW4 8876   0.862   0.077   3.823  0.5252 -0.1172  0.1540
    1SOL     OW 8877   0.901   0.368   3.893  0.8317  0.1087 -0.1779
    1SOL    HW2 8878   0.911   0.385   3.987  1.2048  0.5269 -0.2940
    1SOL    HW3 8879   0.894   0.273   3.887  3.4858 -0.1318  0.0283
    1SOL    MW4 8880   0.901   0.358   3.905  1.2311  0.1321 -0.1662
    1SOL     OW 8881   1.099   0.458   3.751 -0.2628 -0.0568 -0.9966
    1SOL    HW2 8882   1.180   0.425   3.792  0.2659  0.2549 -1.7874
    1SOL    HW3 8883   1.029   0.416   3.801  0.3519  1.2558  1.0085
    1SOL    MW4 8884   1.101   0.448   3.763 -0.1118  0.1575 -0.8361
    1SOL     OW 8885   1.085   0.725   3.833  0.2952 -0.2573 -0.0312
    1SOL    HW2 8886   1.117   0.729   3.923 -0.2029 -0.0552  0.1380
    1SOL    HW3 8887   1.077   0.632   3.814 -0.2814 -0.2924  0.3765
    1SOL    MW4 8888   1.088   0.713   3.842  0.1534 -0.2353  0.0451
    1SOL     OW 8889   0.852   0.860   3.751 -0.3528  0.5954  0.1069
    1SOL    HW2 8890   0.923   0.800   3.773 -0.0121  0.4383 -1.3892
    1SOL    HW3 8891   0.852   0.864   3.655 -0.5529  2.7742  0.1804
    1SOL    MW4 8892   0.861   0.853   3.741 -0.3343  0.8621 -0.0811
    1SOL     OW 8893   0.873   1.133   3.824 -0.9947 -0.2199 -0.5576
    1SOL    HW2 8894   0.845   1.133   3.915 -1.0209 -0.6675 -0.5650
    1SOL    HW3 8895   0.877   1.041   3.800  1.5288 -0.2226 -0.2458
    1SOL    MW4 8896   0.869   1.121   3.832 -0.6652 -0.2793 -0.5176
    1SOL     OW 8897   1.068   1.293   3.707  0.5395 -0.1444 -0.0602
    1SOL    HW2 8898   1.076   1.371   3.762  1.0461 -1.1060  1.2493
    1SOL    HW3 8899   0.988   1.250   3.737  0.0194  0.1028 -1.0856
    1SOL    MW4 8900   1.059   1.298   3.718  0.5378 -0.2385 -0.0224
    1SOL     OW 8901   1.149   1.505   3.878 -0.2306 -0.0805 -0.5750
    1SOL    HW2 8902   1.166   1.500   3.972 -0.3586 -2.1732 -0.6521
    1SOL    HW3 8903   1.224   1.554   3.843  0.1580  0.1233  0.5172
    1SOL    MW4 8904   1.161   1.511   3.886 -0.1962 -0.3297 -0.4411
    1SOL     OW 8905   0.913   1.638   3.760  0.4315  0.2173  0.0627
    1SOL    HW2 8906   0.998   1.608   3.791 -0.8753 -0.9735  2.6038
    1SOL    HW3 8907   0.920   1.633   3.664  3.0109 -0.3718  0.2371
    1SOL    MW4 8908   0.925   1.633   3.751  0.5994 -0.0175  0.4208
    1SOL     OW 8909   0.914   1.889   3.893 -0.7361  0.1478 -0.2517
    1SOL    HW2 8910   0.919   1.805   3.847 -2.7236 -0.0754 -0.0938
    1SOL    HW3 8911   0.853   1.941   3.842  0.8566  1.7030 -0.6207
    1SOL    MW4 8912   0.907   1.885   3.880 -0.7882  0.3235 -0.2797
    1SOL     OW 8913   1.133   2.034   3.791  0.5943  0.0628  0.4775
    1SOL    HW2 8914   1.054   1.988   3.817 -0.1190  1.6867  1.2200
    1SOL    HW3 8915   1.124   2.045   3.696 -1.1679  2.2154  0.8508
    1SOL    MW4 8916   1.122   2.030   3.782  0.2679  0.5612  0.6247
    1SOL     OW 8917   1.149   2.299   3.836  0.0969  0.2061  0.1150
    1SOL    HW2 8918   1.134   2.313   3.929  2.1678  0.4824  0.4324
    1SOL    HW3 8919   1.144   2.204   3.825 -0.7942  0.2188  0.3793
    1SOL    MW4 8920   1.146   2.288   3.847  0.2525  0.2441  0.1917
    1SOL     OW 8921   0.920   2.422   3.769  0.0330 -0.1633  0.2252
    1SOL    HW2 8922   0.938   2.511   3.800  0.7218 -0.6661  1.3344
    1SOL    HW3 8923   0.995   2.371   3.800  0.0667 -0.9609 -1.1442
    1SOL    MW4 8924   0.932   2.427   3.777  0.1284 -0.3350  0.1907
    1SOL     OW 8925   0.975   2.676   3.830  0.1690 -0.5341  0.1397
    1SOL    HW2 8926   0.944   2.672   3.920  1.9763 -0.5378  0.7803
    1SOL    HW3 8927   1.065   2.708   3.837 -0.4199  1.6672 -1.8327
    1SOL    MW4 8928   0.983   2.679   3.843  0.3299 -0.2439 -0.0358
    1SOL     OW 8929   1.214   2.823   3.810 -0.2163 -0.2934  0.2640
    1SOL    HW2 8930   1.301   2.791   3.834  0.5045  0.7865 -0.8334
    1SOL    HW3 8931   1.212   2.913   3.843 -0.8708 -0.2811  0.1960
    1SOL    MW4 8932   1.225   2.831   3.817 -0.2077 -0.1493  0.1101
    1SOL     OW 8933   1.180   3.090   3.914  0.0859 -0.0139 -0.4332
    1SOL    HW2 8934   1.247   3.152   3.886 -0.7636  0.7068 -0.9050
    1SOL    HW3 8935   1.097   3.131   3.887 -0.5763 -0.5912  0.7170
    1SOL    MW4 8936   1.178   3.103   3.906 -0.1136  0.0050 -0.3436
    1SOL     OW 8937   0.966   3.230   3.800  0.0893 -0.0642 -0.3459
    1SOL    HW2 8938   0.904   3.160   3.821 -1.2675  0.3777 -2.6501
    1SOL    HW3 8939   0.959   3.240   3.705  2.4859  1.1591 -0.4394
    1SOL    MW4 8940   0.957   3.222   3.790  0.2266  0.1554 -0.6623
    1SOL     OW 8941   0.942   3.473   3.929  0.6749 -0.1160 -0.0330
    1SOL    HW2 8942   0.958   3.387   3.890  0.0717 -0.6664  0.9047
    1SOL    HW3 8943   0.865   3.506   3.884  0.0882 -0.6711  0.5441
    1SOL    MW4 8944   0.934   3.466   3.918  0.5179 -0.2618  0.1671
    1SOL     OW 8945   1.138   3.612   3.789  0.1833 -0.1738 -0.1002
    1SOL    HW2 8946   1.106   3.699   3.814 -0.5787  0.2310 -2.3039
    1SOL    HW3 8947   1.075   3.552   3.828  0.1512  0.3092  0.6082
    1SOL    MW4 8948   1.125   3.616   3.797  0.0784 -0.0565 -0.2973
    1SOL     OW 8949   1.093   3.882   3.871  0.1883 -0.1143  0.4742
    1SOL    HW2 8950   1.094   3.906   3.964 -0.4969 -0.0377  0.4624
    1SOL    HW3 8951   1.174   3.919   3.836 -0.3725  1.3214  0.6740
    1SOL    MW4 8952   1.104   3.890   3.879  0.0238  0.0849  0.4990
    1SOL     OW 8953   0.850   3.985   3.774 -0.2858 -0.2430 -0.0002
    1SOL    HW2 8954   0.936   3.947   3.792  0.7145  2.0550  0.2552
    1SOL    HW3 8955   0.847   3.990   3.678 -0.2951 -0.6759 -0.0240
    1SOL    MW4 8956   0.861   3.981   3.763 -0.1551  0.0029  0.0305
    1SOL     OW 8957   0.907   4.259   3.871 -0.0116  0.5151  0.1605
    1SOL    HW2 8958   0.866   4.272   3.957  0.9570  0.8440  0.5736
    1SOL    HW3 8959   0.894   4.166   3.852 -2.5090  0.9545 -0.5233
    1SOL    MW4 8960   0.900   4.248   3.880 -0.2133  0.6170  0.1249
    1SOL     OW 8961   1.113   4.419   3.748 -0.0976  0.3543  0.1254
    1SOL    HW2 8962   1.047   4.361   3.786  0.3634 -1.0304 -1.1556
    1SOL    HW3 8963   1.106   4.406   3.654  0.9990  1.3023 -0.1009
    1SOL    MW4 8964   1.103   4.410   3.741  0.1079  0.2975 -0.0737
    1SOL     OW 8965   1.573   4.652   3.859 -0.2464  0.6329 -0.0746
    1SOL    HW2 8966   1.557   4.644   3.953 -0.7680 -0.2455 -0.2377
    1SOL    HW3 8967   1.580   4.562   3.828  1.4461  0.9303 -0.6236
    1SOL    MW4 8968   1.572   4.639   3.867 -0.0920  0.5560 -0.1686
    1SOL     OW 8969   1.330   0.090   3.729 -0.0028  0.4930  0.4071
    1SOL    HW2 8970   1.322   0.175   3.773 -1.7812 -0.5391  2.1324
    1SOL    HW3 8971   1.400   0.045   3.775  0.3872  0.6855  0.0125
    1SOL    MW4 8972   1.338   0.095   3.741 -0.1860  0.3822  0.5827
    1SOL     OW 8973   1.335   0.340   3.870  0.3808 -0.4089  0.4148
    1SOL    HW2 8974   1.353   0.351   3.964  1.2714 -0.1220  0.2169
    1SOL    HW3 8975   1.409   0.382   3.827  0.0282 -0.6441 -0.4219
    1SOL    MW4 8976   1.347   0.347   3.877  0.4517 -0.4021  0.2785
    1SOL     OW 8977   1.541   0.482   3.759  0.4493  0.3276  0.2937
    1SOL    HW2 8978   1.626   0.459   3.797 -0.0089 -1.0761  0.4732
    1SOL    HW3 8979   1.515   0.562   3.806  1.4222  0.4797  0.5962
    1SOL    MW4 8980   1.549   0.490   3.770  0.5172  0.1625  0.3574
    1SOL     OW 8981   1.533   0.721   3.897 -0.2759  0.0618  0.3417
    1SOL    HW2 8982   1.617   0.749   3.862 -0.5116 -0.9913 -1.1160
    1SOL    HW3 8983   1.470   0.784   3.863 -0.0328  1.1509  1.8489
    1SOL    MW4 8984   1.535   0.733   3.888 -0.2749  0.0666  0.3481
    1SOL     OW 8985   1.314   0.870   3.768 -0.2314 -0.1255  0.3463
    1SOL    HW2 8986   1.294   0.959   3.797 -0.2092 -0.6126  1.8837
    1SOL    HW3 8987   1.234   0.821   3.783 -0.5925 -0.1360 -1.5134
    1SOL    MW4 8988   1.301   0.876   3.774 -0.2761 -0.1912  0.3037
    1SOL     OW 8989   1.294   1.151   3.815  0.0326 -0.2286  0.8125
    1SOL    HW2 8990   1.370   1.209   3.806 -0.5612  0.5362  0.6439
    1SOL    HW3 8991   1.220   1.205   3.787 -0.3353 -1.5602 -0.8884
    1SOL    MW4 8992   1.294   1.166   3.810 -0.0943 -0.3034  0.5660
    1SOL     OW 8993   1.579   1.277   3.792 -0.0090 -0.6250  0.0608
    1SOL    HW2 8994   1.661   1.232   3.811  1.4634  0.4110 -3.3676
    1SOL    HW3 8995   1.589   1.363   3.831  0.0484 -0.8806  0.6195
    1SOL    MW4 8996   1.591   1.282   3.799  0.1929 -0.5221 -0.3181
    1SOL     OW 8997   1.557   1.527   3.873 -0.5573  0.0262 -0.0056
    1SOL    HW2 8998   1.552   1.546   3.967 -1.1942  0.0653 -0.0445
    1SOL    HW3 8999   1.632   1.579   3.843  0.0897 -0.5368  0.6076
    1SOL    MW4 9000   1.566   1.537   3.882 -0.5559 -0.0429  0.0699
    1SOL     OW 9001   1.340   1.659   3.773 -0.4603 -0.1380  0.2367
    1SOL    HW2 9002   1.355   1.748   3.805 -1.7063 -0.0114  0.5029
    1SOL    HW3 9003   1.416   1.609   3.804 -0.2542  0.6120  0.9601
    1SOL    MW4 9004   1.352   1.664   3.782 -0.5975 -0.0224  0.3676
    1SOL     OW 9005   1.380   1.915   3.858  0.4407 -0.1188 -0.4496
    1SOL    HW2 9006   1.374   1.917   3.954 -0.2952  2.4718 -0.5017
    1SOL    HW3 9007   1.298   1.954   3.829  0.3463 -1.5616 -2.1705
    1SOL    MW4 9008   1.368   1.920   3.867  0.3310  0.0328 -0.6835
    1SOL     OW 9009   1.575   2.090   3.751 -0.5266 -0.5266 -0.1729
    1SOL    HW2 9010   1.499   2.041   3.782 -1.2092 -0.4127 -1.5870
    1SOL    HW3 9011   1.581   2.068   3.658  0.3621  0.5131 -0.3785
    1SOL    MW4 9012   1.566   2.081   3.743 -0.4994 -0.3746 -0.3867
    1SOL     OW 9013   1.571   2.338   3.869  0.3314  0.1808  0.4862
    1SOL    HW2 9014   1.642   2.394   3.839 -0.1025  1.1200  1.1879
    1SOL    HW3 9015   1.579   2.258   3.817  0.4723  1.2068 -1.0909
    1SOL    MW4 9016   1.581   2.335   3.858  0.2928  0.4401  0.3707
    1SOL     OW 9017   1.362   2.413   3.717 -0.3750 -0.3189 -0.1656
    1SOL    HW2 9018   1.436   2.383   3.771  0.0922  0.0421 -0.6035
    1SOL    HW3 9019   1.285   2.384   3.765  0.0531 -0.9013  0.1881
    1SOL    MW4 9020   1.362   2.405   3.730 -0.2569 -0.3481 -0.1767
    1SOL     OW 9021   1.322   2.724   4.080 -0.0186 -0.3664  0.1596
    1SOL    HW2 9022   1.391   2.789   4.095 -0.5099  0.0746  0.5452
    1SOL    HW3 9023   1.329   2.665   4.156  1.4189 -1.6737 -0.9480
    1SOL    MW4 9024   1.332   2.725   4.092  0.1063 -0.4807  0.0639
    1SOL     OW 9025   1.436   2.651   3.842  0.5401 -0.2376 -0.4824
    1SOL    HW2 9026   1.394   2.656   3.928 -1.0657 -0.8112 -1.2145
    1SOL    HW3 9027   1.391   2.579   3.798  2.6335 -1.2039 -1.1317
    1SOL    MW4 9028   1.425   2.642   3.848  0.6045 -0.4406 -0.6647
    1SOL     OW 9029   1.513   2.946   3.999 -0.1421 -0.0988 -0.1765
    1SOL    HW2 9030   1.609   2.942   4.003 -0.1671 -0.0625  0.5747
    1SOL    HW3 9031   1.490   3.023   4.051 -0.5770 -0.0764 -0.3999
    1SOL    MW4 9032   1.523   2.956   4.007 -0.2027 -0.0913 -0.1068
    1SOL     OW 9033   1.379   3.241   3.799  0.3573  0.4578  0.8064
    1SOL    HW2 9034   1.385   3.334   3.821 -0.4261  1.0852 -1.4331
    1SOL    HW3 9035   1.469   3.209   3.809  0.9855  1.8716 -0.0175
    1SOL    MW4 9036   1.392   3.249   3.803  0.3366  0.7274  0.4022
    1SOL     OW 9037   1.363   3.522   3.914  0.0613 -0.3162 -0.2828
    1SOL    HW2 9038   1.439   3.569   3.879 -0.4774  2.1744  1.7198
    1SOL    HW3 9039   1.289   3.556   3.864 -0.0842 -0.4611 -0.1662
    1SOL    MW4 9040   1.363   3.533   3.903 -0.0291 -0.0069 -0.0036
    1SOL     OW 9041   1.588   3.621   3.767  0.2338  0.0104  0.2605
    1SOL    HW2 9042   1.661   3.575   3.806 -0.0016  0.7707  1.6455
    1SOL    HW3 9043   1.594   3.710   3.802 -0.8194  0.3214 -0.3087
    1SOL    MW4 9044   1.598   3.627   3.777  0.0637  0.1519  0.3681
    1SOL     OW 9045   1.572   3.869   3.873 -0.2407 -0.1923  0.2130
    1SOL    HW2 9046   1.559   3.880   3.968 -0.6538 -0.2753  0.1627
    1SOL    HW3 9047   1.487   3.887   3.835 -0.1043 -0.2970 -0.1371
    1SOL    MW4 9048   1.559   3.873   3.881 -0.2772 -0.2170  0.1602
    1SOL     OW 9049   1.324   3.957   3.770  0.2014 -0.1783 -0.3582
    1SOL    HW2 9050   1.331   4.045   3.807 -1.1978  0.1430 -0.8403
    1SOL    HW3 9051   1.331   3.971   3.675  1.1431 -0.7131 -0.3664
    1SOL    MW4 9052   1.326   3.971   3.762  0.1410 -0.2065 -0.4227
    1SOL     OW 9053   1.291   4.234   3.827  0.0385 -0.2231 -0.4651
    1SOL    HW2 9054   1.379   4.272   3.821 -0.1867  0.3308 -0.2726
    1SOL    HW3 9055   1.232   4.308   3.812 -0.4338 -0.0396  2.1055
    1SOL    MW4 9056   1.295   4.249   3.824 -0.0535 -0.1259 -0.1006
    1SOL     OW 9057   1.552   4.375   3.797  0.1393  0.1566 -0.1379
    1SOL    HW2 9058   1.636   4.338   3.824 -0.0969 -1.3614 -1.4239
    1SOL    HW3 9059   1.554   4.372   3.701 -1.7019 -0.6404 -0.1620
    1SOL    MW4 9060   1.564   4.370   3.788 -0.1348 -0.1488 -0.3111
    1SOL     OW 9061   2.037   4.635   3.850  0.2368 -0.1646 -0.1355
    1SOL    HW2 9062   2.111   4.682   3.812  0.4649 -1.0271 -0.7665
    1SOL    HW3 9063   2.045   4.546   3.817 -1.7441 -0.0002 -1.2156
    1SOL    MW4 9064   2.048   4.630   3.840  0.0055 -0.2565 -0.3614
    1SOL     OW 9065   1.790   0.126   3.795 -0.5025  0.4266  0.0077
    1SOL    HW2 9066   1.864   0.077   3.831 -0.6915 -0.7774 -1.2005
    1SOL    HW3 9067   1.713   0.076   3.820 -0.7509  0.4883 -0.6203
    1SOL    MW4 9068   1.789   0.113   3.803 -0.5602  0.2759 -0.2344
    1SOL     OW 9069   1.792   0.396   3.853  0.0637  0.1345  0.1761
    1SOL    HW2 9070   1.793   0.391   3.949  2.0223  0.1074  0.1782
    1SOL    HW3 9071   1.790   0.304   3.825 -1.1488  0.1502  0.1715
    1SOL    MW4 9072   1.792   0.383   3.862  0.1622  0.1330  0.1760
    1SOL     OW 9073   2.056   0.530   3.812  0.6347 -0.3883  0.1894
    1SOL    HW2 9074   1.974   0.488   3.840  0.3974  0.1490  0.3185
    1SOL    HW3 9075   2.062   0.511   3.719  0.5524 -0.7476  0.2559
    1SOL    MW4 9076   2.046   0.522   3.804  0.5925 -0.3648  0.2151
    1SOL     OW 9077   2.000   0.815   3.839 -0.8758 -0.3491 -0.1233
    1SOL    HW2 9078   2.011   0.822   3.934 -1.6622  0.0186 -0.0517
    1SOL    HW3 9079   2.029   0.727   3.817 -1.0603 -0.5703  0.5160
    1SOL    MW4 9080   2.005   0.805   3.849 -1.0037 -0.3298 -0.0296
    1SOL     OW 9081   1.741   0.852   3.761 -0.1930  0.2562 -0.1149
    1SOL    HW2 9082   1.823   0.817   3.796 -0.4785 -0.0780  0.2259
    1SOL    HW3 9083   1.757   0.863   3.667  0.6806  1.4523  0.1680
    1SOL    MW4 9084   1.754   0.849   3.753 -0.1154  0.3700 -0.0329
    1SOL     OW 9085   1.806   1.139   3.881  0.5744 -0.0826  0.3252
    1SOL    HW2 9086   1.798   1.146   3.976  0.1238  1.9941  0.1656
    1SOL    HW3 9087   1.775   1.051   3.860 -3.0381  0.7701  1.7432
    1SOL    MW4 9088   1.800   1.128   3.891  0.0383  0.3037  0.4914
    1SOL     OW 9089   2.002   1.292   3.739  0.0429 -0.0018 -0.2041
    1SOL    HW2 9090   2.085   1.254   3.766  0.8887  0.9348 -1.4313
    1SOL    HW3 9091   1.936   1.233   3.776  1.2456 -0.9375  0.5044
    1SOL    MW4 9092   2.004   1.279   3.747  0.3130 -0.0018 -0.2728
    1SOL     OW 9093   2.029   1.555   3.866  0.1503  0.0401 -0.1920
    1SOL    HW2 9094   1.948   1.601   3.846  0.6013  1.1302  0.4266
    1SOL    HW3 9095   2.016   1.466   3.833 -2.2305 -0.5096  2.0498
    1SOL    MW4 9096   2.017   1.549   3.859 -0.1044  0.1113  0.1855
    1SOL     OW 9097   1.763   1.656   3.764 -0.2264  0.1599 -0.0029
    1SOL    HW2 9098   1.768   1.750   3.781 -0.7015  0.4601 -1.4517
    1SOL    HW3 9099   1.772   1.648   3.669  0.4318 -1.3084  0.1592
    1SOL    MW4 9100   1.765   1.667   3.754 -0.2022  0.0058 -0.1726
    1SOL     OW 9101   1.745   1.906   3.870 -0.3495  0.2490  0.2916
    1SOL    HW2 9102   1.712   1.904   3.960 -0.5196  1.1908  0.2612
    1SOL    HW3 9103   1.696   1.977   3.829  0.2488  0.2996 -0.3394
    1SOL    MW4 9104   1.734   1.915   3.876 -0.2931  0.3799  0.2043
    1SOL     OW 9105   1.979   2.064   3.782  0.2838  0.3052  0.1301
    1SOL    HW2 9106   1.918   2.002   3.821  0.7231  0.0466  0.4148
    1SOL    HW3 9107   1.964   2.057   3.688  1.1863 -1.1531  0.0637
    1SOL    MW4 9108   1.969   2.055   3.775  0.4609  0.0787  0.1588
    1SOL     OW 9109   2.002   2.333   3.823  0.5521 -0.4796  0.0678
    1SOL    HW2 9110   1.913   2.360   3.801 -0.3762 -1.2285  2.6634
    1SOL    HW3 9111   2.004   2.240   3.802  0.5143 -0.6007  0.5959
    1SOL    MW4 9112   1.990   2.324   3.818  0.4245 -0.5941  0.4802
    1SOL     OW 9113   1.778   2.484   3.730 -0.2563  0.3738 -0.0540
    1SOL    HW2 9114   1.773   2.576   3.756  0.7993  0.8066 -1.3405
    1SOL    HW3 9115   1.783   2.486   3.634 -1.1305 -1.0669 -0.1612
    1SOL    MW4 9116   1.778   2.496   3.721 -0.2325  0.2410 -0.2379
    1SOL     OW 9117   1.525   2.962   3.716 -0.3740 -0.2295 -0.0313
    1SOL    HW2 9118   1.500   2.943   3.806  0.9633 -0.7878  0.2309
    1SOL    HW3 9119   1.545   2.876   3.678  0.0636  0.0967 -0.5529
    1SOL    MW4 9120   1.524   2.948   3.723 -0.1398 -0.2604 -0.0653
    1SOL     OW 9121   2.110   2.830   3.720  0.0192  0.4336  0.0517
    1SOL    HW2 9122   2.185   2.779   3.749 -0.3497 -0.9431 -1.3170
    1SOL    HW3 9123   2.045   2.820   3.790  0.4722  0.1815  0.4362
    1SOL    MW4 9124   2.111   2.822   3.733  0.0303  0.2186 -0.0782
    1SOL     OW 9125   2.082   3.106   3.781  0.1638 -0.2010  0.3760
    1SOL    HW2 9126   2.107   3.019   3.750  1.2537 -0.0094  0.7124
    1SOL    HW3 9127   2.155   3.163   3.756 -0.8201  0.7485 -0.4061
    1SOL    MW4 9128   2.095   3.102   3.774  0.1779 -0.0503  0.3169
    1SOL     OW 9129   1.679   3.203   3.720  0.2396  0.2212  0.1935
    1SOL    HW2 9130   1.726   3.210   3.803  0.3180  1.0629  0.0785
    1SOL    HW3 9131   1.638   3.117   3.723  0.7243  0.0117  0.8547
    1SOL    MW4 9132   1.680   3.193   3.731  0.3140  0.3045  0.2654
    1SOL     OW 9133   1.810   3.502   3.919 -0.0315 -0.0884 -0.3353
    1SOL    HW2 9134   1.887   3.545   3.883  0.5077 -0.0288  0.8502
    1SOL    HW3 9135   1.832   3.409   3.919  1.0672  0.1342  2.3270
    1SOL    MW4 9136   1.823   3.496   3.914  0.1847 -0.0513  0.1726
    1SOL     OW 9137   2.043   3.630   3.858 -0.2522  0.4094 -0.1655
    1SOL    HW2 9138   2.125   3.586   3.883 -0.3221  0.8091  0.7872
    1SOL    HW3 9139   2.040   3.623   3.763  0.3106 -0.6450 -0.1193
    1SOL    MW4 9140   2.053   3.623   3.849 -0.1874  0.3233 -0.0334
    1SOL     OW 9141   2.024   3.897   3.858 -0.0322 -0.0151 -0.0629
    1SOL    HW2 9142   2.110   3.934   3.838  0.7127 -0.0509  2.7591
    1SOL    HW3 9143   2.032   3.804   3.839  0.6800 -0.0785  0.5508
    1SOL    MW4 9144   2.036   3.890   3.853  0.1600 -0.0281  0.3905
    1SOL     OW 9145   1.805   4.000   3.733  0.5058  0.1931 -0.5292
    1SOL    HW2 9146   1.883   3.959   3.770  0.2786 -0.1879 -0.4627
    1SOL    HW3 9147   1.732   3.961   3.782  0.2206 -0.1194 -1.1992
    1SOL    MW4 9148   1.805   3.989   3.745  0.4382  0.1016 -0.6089
    1SOL     OW 9149   1.787   4.245   3.856  0.2564 -0.0047 -0.2947
    1SOL    HW2 9150   1.858   4.297   3.818  1.0814 -1.0381 -0.1622
    1SOL    HW3 9151   1.788   4.164   3.806 -1.2105  0.1926 -0.6794
    1SOL    MW4 9152   1.796   4.241   3.844  0.1717 -0.1149 -0.3278
    1SOL     OW 9153   2.009   4.375   3.748  0.0793 -0.1317  0.1226
    1SOL    HW2 9154   2.083   4.325   3.782 -0.3884 -1.4364 -0.7776
    1SOL    HW3 9155   2.018   4.369   3.653  0.4320  2.1091 -0.0220
    1SOL    MW4 9156   2.020   4.368   3.740  0.0639 -0.0081 -0.0153
    1SOL     OW 9157   2.476   4.666   3.853  0.3881  0.5205  0.7430
    1SOL    HW2 9158   2.477   4.662   3.949 -0.0685  1.0071  0.7736
    1SOL    HW3 9159   2.553   4.718   3.831  0.1245  0.9752  0.8824
    1SOL    MW4 9160   2.487   4.673   3.863  0.2930  0.6447  0.7656
    1SOL     OW 9161   2.239   0.106   3.739 -0.3906  0.0622 -0.5535
    1SOL    HW2 9162   2.325   0.082   3.775 -0.3316 -0.3327 -0.9544
    1SOL    HW3 9163   2.246   0.088   3.646 -1.4066 -1.4344 -0.3625
    1SOL    MW4 9164   2.251   0.101   3.732 -0.5167 -0.1874 -0.5813
    1SOL     OW 9165   2.280   0.363   3.834 -0.7555 -0.2049  0.3779
    1SOL    HW2 9166   2.263   0.275   3.799 -2.7038  0.4759 -0.4724
    1SOL    HW3 9167   2.196   0.409   3.825  0.2245  1.7295  0.8577
    1SOL    MW4 9168   2.267   0.357   3.828 -0.8831  0.1402  0.3290
    1SOL     OW 9169   2.495   0.500   3.714 -0.0398  0.1244  0.4899
    1SOL    HW2 9170   2.421   0.449   3.747  0.0388 -0.5104 -0.3156
    1SOL    HW3 9171   2.477   0.512   3.621  1.5911 -1.2748 -0.0175
    1SOL    MW4 9172   2.483   0.495   3.706  0.1857 -0.1439  0.3166
    1SOL     OW 9173   2.465   0.754   3.857  0.1684 -0.1527  0.0994
    1SOL    HW2 9174   2.384   0.799   3.833  0.5168  0.0929 -0.6262
    1SOL    HW3 9175   2.457   0.667   3.817  0.4139 -0.0054 -0.2767
    1SOL    MW4 9176   2.453   0.748   3.848  0.2470 -0.1009 -0.0460
    1SOL     OW 9177   2.241   0.903   3.769 -0.8729 -0.2026 -0.1553
    1SOL    HW2 9178   2.151   0.876   3.787 -0.0502 -2.2068  1.1729
    1SOL    HW3 9179   2.248   0.901   3.674 -2.1866 -0.1666 -0.2699
    1SOL    MW4 9180   2.230   0.899   3.759 -0.9377 -0.4623  0.0048
    1SOL     OW 9181   2.226   1.170   3.839 -0.3184 -0.1186 -0.4197
    1SOL    HW2 9182   2.220   1.181   3.934  1.2149  1.1863 -0.4629
    1SOL    HW3 9183   2.232   1.075   3.826 -0.5103 -0.3036  0.7782
    1SOL    MW4 9184   2.226   1.159   3.850 -0.1414  0.0290 -0.2675
    1SOL     OW 9185   2.470   1.273   3.745  0.2278 -0.2141  0.5838
    1SOL    HW2 9186   2.475   1.368   3.757 -0.5978 -0.0173 -0.4715
    1SOL    HW3 9187   2.380   1.251   3.770  0.6824 -0.8492  1.6612
    1SOL    MW4 9188   2.459   1.282   3.750  0.1791 -0.2720  0.5870
    1SOL     OW 9189   2.511   1.539   3.802 -0.2703 -0.6583  0.2514
    1SOL    HW2 9190   2.585   1.592   3.773 -1.0261 -0.9904 -2.4763
    1SOL    HW3 9191   2.435   1.595   3.787 -0.9098 -1.7953 -0.8391
    1SOL    MW4 9192   2.511   1.553   3.796 -0.4544 -0.8521 -0.2522
    1SOL     OW 9193   2.239   1.680   3.750 -0.5470  0.0321  0.3289
    1SOL    HW2 9194   2.238   1.767   3.789 -1.5217  0.1246  0.1235
    1SOL    HW3 9195   2.156   1.640   3.778 -0.8235 -0.2535 -0.8255
    1SOL    MW4 9196   2.228   1.686   3.759 -0.7119  0.0067  0.1495
    1SOL     OW 9197   2.232   1.957   3.863  0.6240  0.5613  0.2861
    1SOL    HW2 9198   2.220   1.943   3.957  1.0951 -1.7954  0.0430
    1SOL    HW3 9199   2.154   2.004   3.836 -0.6380 -0.7692  1.4722
    1SOL    MW4 9200   2.220   1.961   3.872  0.5195  0.0749  0.4108
    1SOL     OW 9201   2.478   2.020   3.773  0.1091  0.1859 -0.3821
    1SOL    HW2 9202   2.484   2.113   3.794  1.7222 -0.1984  0.9944
    1SOL    HW3 9203   2.389   1.995   3.796 -0.2900  1.3531 -0.6452
    1SOL    MW4 9204   2.467   2.029   3.778  0.2692  0.2894 -0.2351
    1SOL     OW 9205   2.475   2.290   3.823 -0.0917  0.2171 -0.0636
    1SOL    HW2 9206   2.554   2.343   3.813 -1.1717  1.9857  0.6717
    1SOL    HW3 9207   2.403   2.350   3.805 -1.3841 -0.7705  1.6582
    1SOL    MW4 9208   2.476   2.305   3.819 -0.4048  0.3204  0.2608
    1SOL     OW 9209   2.248   2.438   3.750 -0.3478 -0.9003 -0.1634
    1SOL    HW2 9210   2.160   2.403   3.764 -0.5453 -0.5846 -0.6046
    1SOL    HW3 9211   2.261   2.434   3.656 -1.0287  1.7810 -0.4073
    1SOL    MW4 9212   2.238   2.433   3.740 -0.4637 -0.5047 -0.2537
    1SOL     OW 9213   2.311   2.689   3.849  0.0160  0.2440  0.4214
    1SOL    HW2 9214   2.297   2.684   3.944  0.6968  0.4778  0.5388
    1SOL    HW3 9215   2.290   2.601   3.818 -0.0949  0.1300  0.8085
    1SOL    MW4 9216   2.307   2.676   3.858  0.0913  0.2599  0.4880
    1SOL     OW 9217   2.536   2.830   3.748  0.1055  0.1175 -0.2933
    1SOL    HW2 9218   2.465   2.792   3.800  0.8495 -0.3829  0.3644
    1SOL    HW3 9219   2.503   2.831   3.658 -1.4447  1.5661  0.2735
    1SOL    MW4 9220   2.522   2.825   3.743 -0.0010  0.2422 -0.1318
    1SOL     OW 9221   2.535   3.104   3.796 -0.3649  0.0596  0.4175
    1SOL    HW2 9222   2.511   3.121   3.887  0.9276 -0.0622  0.7905
    1SOL    HW3 9223   2.526   3.009   3.787 -0.0670  0.0225  0.5331
    1SOL    MW4 9224   2.530   3.093   3.807 -0.1552  0.0389  0.4823
    1SOL     OW 9225   2.304   3.254   3.694  0.4615  0.1758  0.2990
    1SOL    HW2 9226   2.295   3.341   3.734 -1.9785 -0.4860  1.2853
    1SOL    HW3 9227   2.384   3.219   3.731 -0.6386  0.4409  3.0439
    1SOL    MW4 9228   2.313   3.261   3.704 -0.0055  0.1235  0.7913
    1SOL     OW 9229   2.286   3.488   3.825  0.2331 -0.1721 -0.9539
    1SOL    HW2 9230   2.286   3.460   3.917  1.5010 -0.1590 -0.9422
    1SOL    HW3 9231   2.357   3.552   3.819  0.4941 -0.5470 -2.0487
    1SOL    MW4 9232   2.295   3.493   3.836  0.4344 -0.2198 -1.0967
    1SOL     OW 9233   2.514   3.654   3.762 -0.0967 -0.2422  0.1404
    1SOL    HW2 9234   2.587   3.596   3.783 -1.0118 -1.0455  1.1640
    1SOL    HW3 9235   2.517   3.664   3.667  1.4887 -0.0610  0.2025
    1SOL    MW4 9236   2.524   3.648   3.753 -0.0081 -0.3242  0.2837
    1SOL     OW 9237   2.533   3.895   3.884 -0.1369  0.4018  0.0002
    1SOL    HW2 9238   2.605   3.944   3.843  0.1275 -0.0842 -0.1123
    1SOL    HW3 9239   2.544   3.805   3.854 -0.8509  0.3423 -0.0958
    1SOL    MW4 9240   2.544   3.890   3.875 -0.1962  0.3297 -0.0274
    1SOL     OW 9241   2.287   4.003   3.804  0.2024  0.4057  0.1392
    1SOL    HW2 9242   2.368   3.959   3.829  0.2939  0.5044  0.0172
    1SOL    HW3 9243   2.293   4.013   3.709 -0.0265  0.2668  0.1116
    1SOL    MW4 9244   2.299   3.999   3.795  0.1843  0.4001  0.1194
    1SOL     OW 9245   2.251   4.278   3.863 -0.2674  0.6151  0.0265
    1SOL    HW2 9246   2.240   4.283   3.958  1.2316  0.2847  0.2324
    1SOL    HW3 9247   2.290   4.192   3.848  1.7036  1.5980 -0.6555
    1SOL    MW4 9248   2.254   4.267   3.874  0.1903  0.7014 -0.0360
    1SOL     OW 9249   2.485   4.423   3.743  0.0092  0.2812  0.3461
    1SOL    HW2 9250   2.423   4.361   3.781  0.7231  0.0354  1.1228
    1SOL    HW3 9251   2.483   4.499   3.801  0.2546  0.3784  0.2299
    1SOL    MW4 9252   2.476   4.425   3.755  0.1357  0.2618  0.4330
    1SOL     OW 9253   2.911   4.655   3.842  0.9013  0.1557  0.1199
    1SOL    HW2 9254   2.916   4.651   3.937  1.5903 -0.9393  0.0393
    1SOL    HW3 9255   2.995   4.694   3.815  1.5840 -1.4625 -0.1507
    1SOL    MW4 9256   2.923   4.660   3.851  1.0822 -0.2022  0.0734
    1SOL     OW 9257   2.699   0.144   3.767 -0.2136 -0.5850  0.3935
    1SOL    HW2 9258   2.782   0.101   3.789  0.2147  0.4138  0.7687
    1SOL    HW3 9259   2.696   0.144   3.672 -0.0681 -1.1549  0.3857
    1SOL    MW4 9260   2.710   0.138   3.758 -0.1380 -0.5284  0.4418
    1SOL     OW 9261   2.704   0.408   3.867 -0.1194 -0.3127 -0.0635
    1SOL    HW2 9262   2.683   0.318   3.840 -2.2212 -0.5141  2.0438
    1SOL    HW3 9263   2.643   0.463   3.819  1.4918  0.0666 -1.7218
    1SOL    MW4 9264   2.693   0.403   3.857 -0.1843 -0.2892 -0.0045
    1SOL     OW 9265   2.918   0.518   3.747 -0.1328 -0.4031 -0.4686
    1SOL    HW2 9266   2.993   0.474   3.785  0.8219  0.3631 -1.4226
    1SOL    HW3 9267   2.842   0.477   3.788  0.7684 -2.0256 -0.4077
    1SOL    MW4 9268   2.917   0.507   3.757  0.1121 -0.5161 -0.5867
    1SOL     OW 9269   2.909   0.754   3.918 -0.2730 -0.4633 -0.2284
    1SOL    HW2 9270   2.990   0.804   3.905 -0.4415 -0.1615 -0.1246
    1SOL    HW3 9271   2.918   0.678   3.860 -1.6259  1.5976 -3.2450
    1SOL    MW4 9272   2.921   0.751   3.908 -0.4737 -0.1516 -0.6127
    1SOL     OW 9273   2.708   0.889   3.768 -0.2467 -0.0030  0.6379
    1SOL    HW2 9274   2.775   0.838   3.813  0.5694 -0.2410 -0.8229
    1SOL    HW3 9275   2.625   0.859   3.806  0.3674 -0.8081  1.3644
    1SOL    MW4 9276   2.706   0.878   3.779 -0.0582 -0.1407  0.5410
    1SOL     OW 9277   2.706   1.165   3.882 -0.3821 -0.3185  0.0321
    1SOL    HW2 9278   2.701   1.071   3.864 -2.6373 -0.0889 -0.6240
    1SOL    HW3 9279   2.626   1.201   3.846  0.1311  1.7806  0.9087
    1SOL    MW4 9280   2.695   1.157   3.875 -0.6118 -0.0112  0.0610
    1SOL     OW 9281   2.945   1.255   3.777  0.2188 -0.1362  0.2637
    1SOL    HW2 9282   2.942   1.348   3.799 -0.3614 -0.1445  0.2279
    1SOL    HW3 9283   2.856   1.223   3.795  0.2672 -0.5654 -0.2363
    1SOL    MW4 9284   2.933   1.263   3.782  0.1485 -0.1941  0.1929
    1SOL     OW 9285   2.979   1.521   3.855 -0.1208 -0.3019  0.1587
    1SOL    HW2 9286   2.994   1.520   3.950 -0.0807 -1.4344  0.1405
    1SOL    HW3 9287   3.055   1.569   3.820 -0.5248  0.7831  0.7599
    1SOL    MW4 9288   2.991   1.528   3.863 -0.1688 -0.3082  0.2358
    1SOL     OW 9289   2.752   1.662   3.770  0.1933  0.1015 -0.2874
    1SOL    HW2 9290   2.826   1.610   3.803 -0.8057 -1.4660 -0.4204
    1SOL    HW3 9291   2.761   1.659   3.675  0.1544  0.1989 -0.2936
    1SOL    MW4 9292   2.763   1.654   3.762  0.0563 -0.0924 -0.3057
    1SOL     OW 9293   2.721   1.935   3.841 -0.0903 -0.4410 -0.1468
    1SOL    HW2 9294   2.721   1.840   3.825 -0.5079 -0.9156  2.3818
    1SOL    HW3 9295   2.640   1.966   3.801 -0.4540 -1.3216 -0.1013
    1SOL    MW4 9296   2.710   1.926   3.834 -0.1936 -0.6198  0.1926
    1SOL     OW 9297   2.943   2.057   3.713 -0.3629 -0.7498  0.7291
    1SOL    HW2 9298   2.944   2.146   3.748 -0.4160 -0.3002 -0.3828
    1SOL    HW3 9299   2.863   2.019   3.747 -0.9731  0.0531  0.2221
    1SOL    MW4 9300   2.933   2.064   3.722 -0.4504 -0.5846  0.5155
    1SOL     OW 9301   2.912   2.323   3.786 -0.0094 -0.0379  0.3252
    1SOL    HW2 9302   2.920   2.329   3.881  0.7662 -0.3621  0.2899
    1SOL    HW3 9303   3.001   2.339   3.754 -0.0317 -1.1164 -0.2853
    1SOL    MW4 9304   2.925   2.326   3.794  0.0899 -0.2232  0.2401
    1SOL     OW 9305   2.685   2.460   3.769 -0.1234  0.0324 -0.2770
    1SOL    HW2 9306   2.711   2.544   3.807 -1.4377 -0.1835  1.1683
    1SOL    HW3 9307   2.765   2.409   3.765  0.1003  0.1840  1.9390
    1SOL    MW4 9308   2.699   2.465   3.773 -0.2673  0.0238  0.2060
    1SOL     OW 9309   2.740   2.703   3.853  0.1538  0.1355  0.3609
    1SOL    HW2 9310   2.724   2.693   3.946 -0.7186 -0.4419  0.1564
    1SOL    HW3 9311   2.663   2.751   3.821  0.5284  0.4814 -0.0306
    1SOL    MW4 9312   2.728   2.708   3.861  0.0882  0.1051  0.2823
    1SOL     OW 9313   2.991   2.811   3.729  0.0553 -0.5632  0.2024
    1SOL    HW2 9314   2.994   2.906   3.739  2.1021 -0.7189  1.2550
    1SOL    HW3 9315   2.912   2.785   3.776 -0.2930  0.5690  0.2688
    1SOL    MW4 9316   2.981   2.820   3.736  0.2794 -0.4349  0.3502
    1SOL     OW 9317   2.949   3.079   3.793 -0.3732  0.0503  0.3218
    1SOL    HW2 9318   3.020   3.136   3.764 -0.5633  1.3921  2.3922
    1SOL    HW3 9319   2.870   3.119   3.758 -0.2354 -0.8700 -1.1026
    1SOL    MW4 9320   2.948   3.092   3.785 -0.3800  0.1061  0.4067
    1SOL     OW 9321   2.739   3.233   3.709 -0.6064 -0.0687 -0.2565
    1SOL    HW2 9322   2.719   3.319   3.747 -0.6643 -0.9671  1.8494
    1SOL    HW3 9323   2.663   3.179   3.732  0.0324 -1.0386 -0.3833
    1SOL    MW4 9324   2.726   3.237   3.717 -0.5298 -0.3154  0.0045
    1SOL     OW 9325   2.722   3.486   3.823 -0.1737  0.0559 -0.5314
    1SOL    HW2 9326   2.720   3.477   3.919  0.0809 -0.4022 -0.5678
    1SOL    HW3 9327   2.800   3.538   3.806 -0.5322  0.6313 -0.4561
    1SOL    MW4 9328   2.732   3.492   3.834 -0.1874  0.0710 -0.5262
    1SOL     OW 9329   2.968   3.626   3.767  0.4459  0.2394  0.2525
    1SOL    HW2 9330   3.039   3.563   3.780 -1.1679 -1.3735  1.4648
    1SOL    HW3 9331   2.937   3.609   3.678 -1.2090 -2.0521  1.1926
    1SOL    MW4 9332   2.973   3.615   3.757  0.0148 -0.2756  0.5364
    1SOL     OW 9333   2.922   3.890   3.842 -0.8302 -0.0072  0.3020
    1SOL    HW2 9334   2.900   3.884   3.935 -2.1306 -0.7075 -0.0348
    1SOL    HW3 9335   2.952   3.802   3.819 -0.2041  0.2482  0.1264
    1SOL    MW4 9336   2.923   3.877   3.851 -0.9191 -0.0658  0.2344
    1SOL     OW 9337   2.722   4.050   3.729 -0.2874  0.1368  0.0220
    1SOL    HW2 9338   2.729   4.132   3.778 -0.2860  0.8622 -1.1551
    1SOL    HW3 9339   2.799   3.999   3.755  1.8483  2.1274 -2.1292
    1SOL    MW4 9340   2.733   4.054   3.739 -0.0052  0.4954 -0.4175
    1SOL     OW 9341   2.702   4.315   3.871 -0.3746 -0.2837  0.2087
    1SOL    HW2 9342   2.774   4.364   3.832 -1.1811  0.9779  0.2568
    1SOL    HW3 9343   2.624   4.350   3.828 -0.9644 -1.5850  0.2024
    1SOL    MW4 9344   2.701   4.326   3.860 -0.5586 -0.2885  0.2143
    1SOL     OW 9345   2.940   4.415   3.726 -0.1418 -0.0503  0.1366
    1SOL    HW2 9346   3.012   4.370   3.770 -0.7734 -0.5994  0.6203
    1SOL    HW3 9347   2.935   4.501   3.768  1.0747  0.4965 -0.7950
    1SOL    MW4 9348   2.949   4.420   3.737 -0.0646 -0.0505  0.0772
    1SOL     OW 9349   3.355   4.654   3.830  0.1313  0.0409  0.1641
    1SOL    HW2 9350   3.358   4.647   3.926  1.3451 -0.1922  0.1182
    1SOL    HW3 9351   3.419   4.722   3.810 -1.6898  1.6287 -0.3405
    1SOL    MW4 9352   3.364   4.662   3.840  0.0513  0.2198  0.0911
    1SOL     OW 9353   3.126   0.147   3.732 -0.0052  0.7401  0.2149
    1SOL    HW2 9354   3.203   0.099   3.763 -1.2359 -1.1554  0.3916
    1SOL    HW3 9355   3.118   0.123   3.640 -0.0897  1.3347  0.0669
    1SOL    MW4 9356   3.135   0.138   3.724 -0.1788  0.5684  0.2186
    1SOL     OW 9357   3.166   0.396   3.819  0.1418  0.3614  0.0452
    1SOL    HW2 9358   3.153   0.386   3.913  2.3690 -1.2515  0.2222
    1SOL    HW3 9359   3.145   0.310   3.783  1.9785  0.1715 -0.5917
    1SOL    MW4 9360   3.161   0.383   3.827  0.6781  0.1236 -0.0155
    1SOL     OW 9361   3.399   0.528   3.777  0.6777 -0.3761 -0.4217
    1SOL    HW2 9362   3.460   0.477   3.831  1.0195  0.7469  0.2904
    1SOL    HW3 9363   3.316   0.481   3.783  1.2316 -1.3857 -0.5923
    1SOL    MW4 9364   3.396   0.515   3.785  0.7956 -0.3612 -0.3500
    1SOL     OW 9365   3.391   0.773   3.926  0.2263  0.0925 -0.0285
    1SOL    HW2 9366   3.371   0.775   4.020 -2.1537  0.2208 -0.5254
    1SOL    HW3 9367   3.407   0.681   3.907  1.4029  0.1511  0.6345
    1SOL    MW4 9368   3.391   0.761   3.936  0.0675  0.1171 -0.0067
    1SOL     OW 9369   3.146   0.863   3.819 -0.0484 -0.2257  0.1490
    1SOL    HW2 9370   3.234   0.833   3.840 -0.0536  0.7744  1.6819
    1SOL    HW3 9371   3.134   0.840   3.727  1.9043 -0.1430 -0.1443
    1SOL    MW4 9372   3.156   0.856   3.809  0.2086 -0.0829  0.3126
    1SOL     OW 9373   3.183   1.133   3.881  0.4796 -0.3462  0.6207
    1SOL    HW2 9374   3.174   1.042   3.855  0.7840 -0.0910 -0.3975
    1SOL    HW3 9375   3.095   1.170   3.869  0.8751  0.0597 -1.2147
    1SOL    MW4 9376   3.170   1.126   3.876  0.5717 -0.2589  0.2444
    1SOL     OW 9377   3.394   1.297   3.787  0.4586 -0.0319 -0.2166
    1SOL    HW2 9378   3.317   1.249   3.816  1.4086 -1.0583  0.6353
    1SOL    HW3 9379   3.385   1.301   3.691  0.5432 -2.2307 -0.3369
    1SOL    MW4 9380   3.383   1.291   3.778  0.5951 -0.4574 -0.1204
    1SOL     OW 9381   3.402   1.552   3.913  0.0123  0.4318  0.3864
    1SOL    HW2 9382   3.347   1.600   3.851  0.7678  0.6177 -0.1411
    1SOL    HW3 9383   3.396   1.461   3.886 -1.3948  0.2143  1.3661
    1SOL    MW4 9384   3.394   1.547   3.902 -0.0737  0.4276  0.4458
    1SOL     OW 9385   3.188   1.670   3.761  0.2022  0.0981  0.3463
    1SOL    HW2 9386   3.177   1.758   3.799 -1.8920  0.1343 -0.3147
    1SOL    HW3 9387   3.167   1.681   3.669  0.3535 -1.0246  0.1757
    1SOL    MW4 9388   3.184   1.683   3.754 -0.0541 -0.0452  0.2367
    1SOL     OW 9389   3.158   1.931   3.823 -0.1354  0.3499  0.0929
    1SOL    HW2 9390   3.157   1.953   3.916 -0.5249 -0.6937  0.3343
    1SOL    HW3 9391   3.079   1.973   3.787 -0.3465  0.1748  0.3567
    1SOL    MW4 9392   3.148   1.940   3.831 -0.2148  0.1891  0.1597
    1SOL     OW 9393   3.389   2.030   3.724 -0.0494  0.5400 -0.0022
    1SOL    HW2 9394   3.307   1.991   3.754 -0.1763  1.5106  0.9214
    1SOL    HW3 9395   3.375   2.044   3.630  0.1339 -1.9414 -0.4387
    1SOL    MW4 9396   3.376   2.026   3.715 -0.0417  0.3407  0.0625
    1SOL     OW 9397   3.359   2.260   3.871  0.2230  0.2408 -0.2115
    1SOL    HW2 9398   3.300   2.301   3.808 -1.3389 -0.5132  0.7302
    1SOL    HW3 9399   3.375   2.173   3.835 -0.5031 -0.1155  0.3196
    1SOL    MW4 9400   3.353   2.254   3.858 -0.0787  0.0944 -0.0172
    1SOL     OW 9401   3.169   2.379   3.724  0.0946 -0.3070  0.3318
    1SOL    HW2 9402   3.165   2.467   3.760 -1.9037 -0.5002  0.6129
    1SOL    HW3 9403   3.188   2.392   3.631  2.2283  0.2947  0.8132
    1SOL    MW4 9404   3.171   2.392   3.716  0.1123 -0.2532  0.4323
    1SOL     OW 9405   3.201   2.636   3.822  0.0596  0.2769 -0.0764
    1SOL    HW2 9406   3.178   2.636   3.915 -0.3937 -1.0145 -0.1848
    1SOL    HW3 9407   3.146   2.704   3.783  0.7618  1.3289  0.7029
    1SOL    MW4 9408   3.191   2.645   3.829  0.0925  0.2453  0.0122
    1SOL     OW 9409   3.382   2.832   3.782  0.6082 -0.4401 -0.3542
    1SOL    HW2 9410   3.320   2.767   3.817  0.3551 -0.5795 -1.0353
    1SOL    HW3 9411   3.376   2.820   3.687  1.7231 -0.4889 -0.4201
    1SOL    MW4 9412   3.373   2.822   3.774  0.7219 -0.4649 -0.4530
    1SOL     OW 9413   3.407   3.102   3.891 -0.5549  0.4583 -0.1952
    1SOL    HW2 9414   3.455   3.145   3.821 -2.3006  1.1976 -0.9429
    1SOL    HW3 9415   3.421   3.008   3.876  1.1905  0.6830 -0.0138
    1SOL    MW4 9416   3.415   3.095   3.880 -0.5548  0.5858 -0.2699
    1SOL     OW 9417   3.197   3.208   3.731  0.4833  0.1030  0.3602
    1SOL    HW2 9418   3.267   3.151   3.766 -0.2356 -1.2271 -0.3228
    1SOL    HW3 9419   3.194   3.186   3.637 -0.3787  0.6704  0.2581
    1SOL    MW4 9420   3.206   3.197   3.723  0.2747  0.0024  0.2565
    1SOL     OW 9421   3.203   3.468   3.829  0.2895  0.3211 -0.5393
    1SOL    HW2 9422   3.291   3.502   3.811  1.2282 -1.5496  0.4340
    1SOL    HW3 9423   3.203   3.381   3.790 -0.7957 -0.0883  0.3725
    1SOL    MW4 9424   3.215   3.461   3.821  0.2699  0.0203 -0.2906
    1SOL     OW 9425   3.422   3.601   3.738 -0.3461 -0.4215 -0.2479
    1SOL    HW2 9426   3.406   3.694   3.754 -0.4822 -0.4544 -0.1946
    1SOL    HW3 9427   3.398   3.588   3.646 -0.8537 -0.5204 -0.1029
    1SOL    MW4 9428   3.417   3.611   3.728 -0.4313 -0.4389 -0.2217
    1SOL     OW 9429   3.377   3.860   3.836 -0.3753  0.0582  0.3873
    1SOL    HW2 9430   3.460   3.900   3.812 -0.6290  0.6683  0.5184
    1SOL    HW3 9431   3.312   3.903   3.780 -0.4461 -1.2683 -0.5705
    1SOL    MW4 9432   3.379   3.871   3.825 -0.4182 -0.0362  0.2785
    1SOL     OW 9433   3.158   4.000   3.732  0.2482 -0.0568 -0.0135
    1SOL    HW2 9434   3.164   4.093   3.755  0.2168 -0.3810  1.3637
    1SOL    HW3 9435   3.073   3.972   3.766  0.7888 -0.8839  0.6849
    1SOL    MW4 9436   3.148   4.009   3.740  0.3152 -0.2084  0.2601
    1SOL     OW 9437   3.156   4.254   3.832 -0.8369 -0.0879 -0.2130
    1SOL    HW2 9438   3.139   4.252   3.926  0.3992 -2.0154 -0.0140
    1SOL    HW3 9439   3.244   4.291   3.824 -0.6167 -0.6893 -0.5705
    1SOL    MW4 9440   3.165   4.259   3.843 -0.6447 -0.4220 -0.2334
    1SOL     OW 9441   3.401   4.368   3.777  0.1142 -0.0431  0.0437
    1SOL    HW2 9442   3.477   4.342   3.830 -0.6230 -0.0750  1.0954
    1SOL    HW3 9443   3.387   4.460   3.800 -2.2150 -0.9412  2.3919
    1SOL    MW4 9444   3.409   4.377   3.787 -0.2904 -0.1659  0.4926
    1SOL     OW 9445   3.803   0.032   3.886 -0.3009 -0.0125 -0.0133
    1SOL    HW2 9446   3.887   0.075   3.868 -0.7363  0.8248 -0.0577
    1SOL    HW3 9447   3.819  -0.060   3.864  1.0330 -0.1383  1.3423
    1SOL    MW4 9448   3.816   0.026   3.881 -0.1824  0.0814  0.1602
    1SOL     OW 9449   3.562   0.152   3.769 -0.4204 -0.1722 -0.1376
    1SOL    HW2 9450   3.648   0.119   3.791 -1.2899 -2.2048  0.3257
    1SOL    HW3 9451   3.560   0.154   3.673  0.3301  0.4437 -0.1412
    1SOL    MW4 9452   3.573   0.148   3.759 -0.4363 -0.3591 -0.0770
    1SOL     OW 9453   3.567   0.380   3.929 -0.2746 -0.2048  0.1602
    1SOL    HW2 9454   3.637   0.434   3.893  0.0363 -0.7848 -0.1172
    1SOL    HW3 9455   3.569   0.300   3.877 -1.0398 -0.2953  0.2574
    1SOL    MW4 9456   3.576   0.376   3.918 -0.3345 -0.2933  0.1364
    1SOL     OW 9457   3.762   0.515   3.795 -0.2028  0.2019  0.3630
    1SOL    HW2 9458   3.851   0.489   3.817 -0.3003  0.3220  0.8940
    1SOL    HW3 9459   3.752   0.603   3.831 -0.5288  0.2005  0.2826
    1SOL    MW4 9460   3.773   0.523   3.803 -0.2584  0.2176  0.4222
    1SOL     OW 9461   3.773   0.775   3.914 -0.1612  0.6031 -0.0379
    1SOL    HW2 9462   3.863   0.797   3.886  0.6323 -1.4176  0.8495
    1SOL    HW3 9463   3.717   0.824   3.854  1.5333  0.2379 -1.9845
    1SOL    MW4 9464   3.778   0.785   3.903  0.1671  0.2883 -0.1774
    1SOL     OW 9465   3.572   0.881   3.751  0.4976 -0.0209 -0.0590
    1SOL    HW2 9466   3.567   0.970   3.786  1.0908 -0.4306  1.0750
    1SOL    HW3 9467   3.503   0.833   3.798  0.4018 -0.2391 -0.4227
    1SOL    MW4 9468   3.562   0.886   3.762  0.5634 -0.1038  0.0427
    1SOL     OW 9469   3.606   1.158   3.891 -0.6124  0.6635  0.3705
    1SOL    HW2 9470   3.667   1.223   3.857 -0.4705  0.5673  0.4453
    1SOL    HW3 9471   3.521   1.184   3.854 -0.2746 -0.0993 -1.0073
    1SOL    MW4 9472   3.603   1.170   3.881 -0.5488  0.5502  0.1986
    1SOL     OW 9473   3.795   1.314   3.793  0.0707  0.0543 -0.0032
    1SOL    HW2 9474   3.859   1.253   3.828 -0.1818 -0.9598 -1.2716
    1SOL    HW3 9475   3.814   1.397   3.837  1.4471 -0.5357  0.5403
    1SOL    MW4 9476   3.806   1.317   3.803  0.2191 -0.1574 -0.0992
    1SOL     OW 9477   3.848   1.556   3.934  0.1650  0.9236 -0.0069
    1SOL    HW2 9478   3.860   1.572   4.027  2.3746 -1.1909  0.1098
    1SOL    HW3 9479   3.780   1.618   3.907 -0.7834  1.2763  3.0747
    1SOL    MW4 9480   3.840   1.566   3.943  0.3314  0.6912  0.4151
    1SOL     OW 9481   3.632   1.693   3.818  0.2657  0.3634 -0.5197
    1SOL    HW2 9482   3.566   1.632   3.853  0.0116  1.0104  0.1596
    1SOL    HW3 9483   3.623   1.687   3.723 -0.0998 -0.2864 -0.4468
    1SOL    MW4 9484   3.622   1.684   3.810  0.1841  0.3630 -0.4206
    1SOL     OW 9485   3.613   1.961   3.851 -0.3876  0.3297  0.0586
    1SOL    HW2 9486   3.612   1.867   3.837  0.0514  0.6615 -2.3810
    1SOL    HW3 9487   3.541   1.994   3.797  0.4470  1.5519 -0.3089
    1SOL    MW4 9488   3.603   1.953   3.842 -0.2196  0.5348 -0.3116
    1SOL     OW 9489   3.843   2.093   3.734 -0.3850 -0.4324  0.2623
    1SOL    HW2 9490   3.925   2.054   3.765 -0.8910  0.0663  2.2588
    1SOL    HW3 9491   3.774   2.040   3.774 -1.0562  0.3017  0.0917
    1SOL    MW4 9492   3.845   2.080   3.743 -0.5405 -0.2697  0.5033
    1SOL     OW 9493   3.830   2.321   3.908  0.2423 -0.1401  0.2533
    1SOL    HW2 9494   3.748   2.366   3.887 -0.3231 -0.9461  0.6946
    1SOL    HW3 9495   3.833   2.247   3.848  0.6903 -0.0567  0.1736
    1SOL    MW4 9496   3.819   2.317   3.898  0.2270 -0.2356  0.3011
    1SOL     OW 9497   3.593   2.412   3.771  0.2070 -0.4364 -0.1281
    1SOL    HW2 9498   3.518   2.369   3.811  0.6018 -0.0273  1.0718
    1SOL    HW3 9499   3.584   2.394   3.677 -2.1000  0.6987 -0.1668
    1SOL    MW4 9500   3.582   2.404   3.764 -0.0451 -0.2327  0.0250
    1SOL     OW 9501   3.617   2.710   3.802  0.4155  1.1466  0.0536
    1SOL    HW2 9502   3.593   2.617   3.804  2.0391  0.7458  2.0472
    1SOL    HW3 9503   3.534   2.756   3.794 -0.4337 -0.4519 -0.6856
    1SOL    MW4 9504   3.603   2.703   3.801  0.5178  0.8829  0.2189
    1SOL     OW 9505   3.843   2.854   3.752 -0.4262  0.4509 -0.2061
    1SOL    HW2 9506   3.912   2.808   3.798 -0.8643  0.3180  0.3315
    1SOL    HW3 9507   3.767   2.796   3.758 -0.7533  0.8704 -0.2418
    1SOL    MW4 9508   3.842   2.841   3.759 -0.5269  0.4888 -0.1400
    1SOL     OW 9509   3.802   3.100   3.828  0.3736 -0.0363 -0.0495
    1SOL    HW2 9510   3.720   3.127   3.786  0.6505  0.9671  0.0545
    1SOL    HW3 9511   3.816   3.011   3.796 -0.2401  0.1400 -0.8495
    1SOL    MW4 9512   3.793   3.092   3.818  0.3290  0.1194 -0.1414
    1SOL     OW 9513   3.579   3.232   3.717 -0.4186 -0.2842 -0.0678
    1SOL    HW2 9514   3.610   3.308   3.767 -0.7237  0.7106 -1.3426
    1SOL    HW3 9515   3.604   3.252   3.626 -2.8662 -0.4658 -0.8056
    1SOL    MW4 9516   3.587   3.245   3.711 -0.7815 -0.1771 -0.3333
    1SOL     OW 9517   3.637   3.468   3.820  0.0145  0.2154 -0.0706
    1SOL    HW2 9518   3.622   3.475   3.915 -0.9096  1.8741 -0.3005
    1SOL    HW3 9519   3.563   3.516   3.782  0.8993  0.3666 -1.6027
    1SOL    MW4 9520   3.625   3.475   3.828  0.0091  0.4542 -0.3028
    1SOL     OW 9521   3.868   3.616   3.749 -0.2838 -0.1756 -0.1241
    1SOL    HW2 9522   3.863   3.709   3.774  0.8927 -0.3780  0.8905
    1SOL    HW3 9523   3.784   3.579   3.779 -0.4486  0.4010  0.1417
    1SOL    MW4 9524   3.856   3.624   3.757 -0.1504 -0.1264  0.0448
    1SOL     OW 9525   3.818   3.868   3.843  0.4967 -0.1758 -0.4179
    1SOL    HW2 9526   3.811   3.868   3.938  0.0732 -0.5529 -0.4447
    1SOL    HW3 9527   3.893   3.924   3.824  0.4088  0.1286  0.1236
    1SOL    MW4 9528   3.827   3.875   3.853  0.4296 -0.1857 -0.3500
    1SOL     OW 9529   3.612   3.994   3.749 -0.3474  0.5146  0.0874
    1SOL    HW2 9530   3.614   4.079   3.792 -1.7814 -0.2639  1.7524
    1SOL    HW3 9531   3.688   3.948   3.784 -0.3796  0.6022  0.2752
    1SOL    MW4 9532   3.622   3.999   3.760 -0.5410  0.4237  0.3319
    1SOL     OW 9533   3.616   4.245   3.888 -0.1600 -0.4270  0.1875
    1SOL    HW2 9534   3.611   4.251   3.984  1.4267  0.2821  0.2503
    1SOL    HW3 9535   3.694   4.296   3.866 -1.9231  1.4989 -1.7149
    1SOL    MW4 9536   3.626   4.253   3.898 -0.1833 -0.0792 -0.0553
    1SOL     OW 9537   3.830   4.432   3.825 -0.2200  0.3025  0.1853
    1SOL    HW2 9538   3.914   4.389   3.842  0.1310  0.7578 -0.3944
    1SOL    HW3 9539   3.815   4.420   3.731 -0.2346  1.2328  0.0622
    1SOL    MW4 9540   3.839   4.425   3.815 -0.1757  0.4854  0.0927
    1SOL     OW 9541   4.271   4.626   3.878  0.4590  0.0400 -0.1794
    1SOL    HW2 9542   4.251   4.655   3.967 -1.9303  0.5335 -0.8370
    1SOL    HW3 9543   4.341   4.684   3.849  0.9395  0.1757  1.2134
    1SOL    MW4 9544   4.277   4.638   3.886  0.2074  0.1230 -0.0825
    1SOL     OW 9545   4.051   0.143   3.787 -0.1677 -0.3512 -0.2084
    1SOL    HW2 9546   4.117   0.075   3.806 -0.0123 -0.3266 -0.6646
    1SOL    HW3 9547   4.033   0.134   3.694 -1.3099 -0.7914  0.0499
    1SOL    MW4 9548   4.058   0.133   3.777 -0.2975 -0.4061 -0.2346
    1SOL     OW 9549   4.031   0.423   3.858  0.1701  0.1844 -0.2375
    1SOL    HW2 9550   4.037   0.412   3.953  2.4177  1.2932 -0.2134
    1SOL    HW3 9551   4.049   0.335   3.823 -1.8123 -0.4835  0.3657
    1SOL    MW4 9552   4.034   0.410   3.866  0.2050  0.2426 -0.1547
    1SOL     OW 9553   4.261   0.532   3.779 -0.5400  1.0883 -0.4857
    1SOL    HW2 9554   4.178   0.494   3.808 -0.4340  0.4658 -0.9784
    1SOL    HW3 9555   4.257   0.527   3.684  0.3661  0.3803 -0.4964
    1SOL    MW4 9556   4.249   0.526   3.770 -0.4063  0.9127 -0.5524
    1SOL     OW 9557   4.222   0.769   3.895  0.1114  0.4220  0.0166
    1SOL    HW2 9558   4.144   0.802   3.851 -0.2803  0.1825  0.5241
    1SOL    HW3 9559   4.233   0.680   3.861 -0.3279  0.1518  0.5715
    1SOL    MW4 9560   4.213   0.761   3.885  0.0024  0.3547  0.1569
    1SOL     OW 9561   3.987   0.894   3.783 -0.3517 -0.1336  0.1218
    1SOL    HW2 9562   4.018   0.984   3.796 -0.1094 -0.2617  0.4232
    1SOL    HW3 9563   3.962   0.891   3.690  0.9499 -0.1593 -0.2386
    1SOL    MW4 9564   3.988   0.905   3.772 -0.1481 -0.1540  0.1142
    1SOL     OW 9565   4.015   1.161   3.848 -0.0152  0.2246 -0.3492
    1SOL    HW2 9566   4.025   1.158   3.943 -0.1084 -1.4371 -0.3720
    1SOL    HW3 9567   4.093   1.208   3.818  0.2386  0.3785  0.5164
    1SOL    MW4 9568   4.027   1.167   3.857  0.0057  0.0259 -0.2382
    1SOL     OW 9569   4.247   1.286   3.757  0.4254 -0.0229 -0.1977
    1SOL    HW2 9570   4.275   1.373   3.784 -0.2109  0.3787 -0.8156
    1SOL    HW3 9571   4.228   1.295   3.663 -0.6018 -0.5838 -0.0506
    1SOL    MW4 9572   4.249   1.299   3.748  0.2055 -0.0440 -0.2599
    1SOL     OW 9573   4.310   1.551   3.859 -0.3943 -0.4846 -0.2678
    1SOL    HW2 9574   4.235   1.611   3.862  0.3260  0.3639  0.6559
    1SOL    HW3 9575   4.384   1.606   3.837  0.3009 -1.0178  0.7256
    1SOL    MW4 9576   4.310   1.566   3.856 -0.2079 -0.4430 -0.0150
    1SOL     OW 9577   4.073   1.705   3.789 -0.0372 -0.7845  0.0874
    1SOL    HW2 9578   4.077   1.800   3.804 -1.2369 -0.6532 -0.4178
    1SOL    HW3 9579   4.007   1.674   3.851  0.1857 -1.2636  0.0867
    1SOL    MW4 9580   4.065   1.713   3.799 -0.1659 -0.8303  0.0205
    1SOL     OW 9581   4.066   1.976   3.852  0.0252  0.8375 -0.3846
    1SOL    HW2 9582   4.054   1.966   3.946  0.2276  0.0321 -0.4452
    1SOL    HW3 9583   4.152   2.018   3.843  0.1306  0.6548 -0.2199
    1SOL    MW4 9584   4.076   1.980   3.863  0.0658  0.7070 -0.3710
    1SOL     OW 9585   4.319   2.069   3.805 -0.0253 -0.3110  0.6959
    1SOL    HW2 9586   4.303   2.158   3.835  1.4435 -0.3237  1.5604
    1SOL    HW3 9587   4.318   2.075   3.709  0.0158  0.6205  0.7515
    1SOL    MW4 9588   4.317   2.081   3.796  0.1740 -0.1898  0.8173
    1SOL     OW 9589   4.270   2.328   3.884 -0.0124  0.2448  0.7062
    1SOL    HW2 9590   4.265   2.356   3.976 -0.7170 -0.8993  1.0365
    1SOL    HW3 9591   4.193   2.368   3.843  0.5826  1.1750  0.4913
    1SOL    MW4 9592   4.259   2.337   3.891 -0.0272  0.2165  0.7215
    1SOL     OW 9593   4.051   2.460   3.793  0.1621  0.2114  0.8328
    1SOL    HW2 9594   4.056   2.555   3.805 -1.1802  0.4242 -0.2027
    1SOL    HW3 9595   3.980   2.432   3.851 -0.7625  0.1190 -0.3200
    1SOL    MW4 9596   4.043   2.469   3.802 -0.1373  0.2272  0.5441
    1SOL     OW 9597   4.077   2.723   3.851 -0.0968 -0.4572 -1.0527
    1SOL    HW2 9598   4.076   2.738   3.946 -0.3726 -1.2501 -0.9288
    1SOL    HW3 9599   4.154   2.770   3.820 -0.1743  0.0598 -0.4757
    1SOL    MW4 9600   4.087   2.731   3.859 -0.1435 -0.4935 -0.9601
    1SOL     OW 9601   4.314   2.852   3.781  0.0719  0.1625 -0.1919
    1SOL    HW2 9602   4.310   2.926   3.841  0.0458 -0.7513  0.9426
    1SOL    HW3 9603   4.381   2.795   3.818 -1.3373 -1.3486  0.0547
    1SOL    MW4 9604   4.322   2.854   3.794 -0.1173 -0.1576 -0.0100
    1SOL     OW 9605   4.279   3.114   3.895 -0.2090  0.5490 -0.1145
    1SOL    HW2 9606   4.204   3.150   3.848  0.3767 -2.5366 -3.7280
    1SOL    HW3 9607   4.355   3.157   3.855  0.1565  0.1130  0.0987
    1SOL    MW4 9608   4.279   3.125   3.883 -0.0834  0.0844 -0.5631
    1SOL     OW 9609   4.045   3.211   3.747 -0.3047  0.4088  0.3406
    1SOL    HW2 9610   3.960   3.172   3.763 -0.0233 -0.5545 -0.4880
    1SOL    HW3 9611   4.053   3.215   3.652  0.2255  1.2624  0.4106
    1SOL    MW4 9612   4.035   3.207   3.736 -0.1974  0.3943  0.2403
    1SOL     OW 9613   4.086   3.473   3.849  0.1919  0.0897  0.0126
    1SOL    HW2 9614   4.073   3.384   3.817 -1.4685  0.0564  0.7136
    1SOL    HW3 9615   4.019   3.524   3.802  1.2734  1.0118 -0.5509
    1SOL    MW4 9616   4.075   3.468   3.838  0.1159  0.2074  0.0310
    1SOL     OW 9617   4.324   3.615   3.753 -0.5611  0.0102  0.0618
    1SOL    HW2 9618   4.258   3.556   3.790 -1.1893  1.0237  0.5730
    1SOL    HW3 9619   4.405   3.592   3.799 -1.0560  0.3589  1.1119
    1SOL    MW4 9620   4.326   3.604   3.764 -0.7095  0.1900  0.2677
    1SOL     OW 9621   4.235   3.850   3.856  0.1540 -0.1928  0.4515
    1SOL    HW2 9622   4.174   3.900   3.802 -1.4340 -0.6399  1.7855
    1SOL    HW3 9623   4.249   3.769   3.807  0.9240  0.5792 -0.6159
    1SOL    MW4 9624   4.229   3.846   3.842  0.0463 -0.1500  0.4864
    1SOL     OW 9625   4.037   4.001   3.733 -0.2659 -0.1381  0.1966
    1SOL    HW2 9626   4.045   4.088   3.771  1.0138 -0.7939  1.4525
    1SOL    HW3 9627   4.064   4.013   3.641  1.3336  0.5262  0.7260
    1SOL    MW4 9628   4.042   4.014   3.726  0.1140 -0.1373  0.4320
    1SOL     OW 9629   4.053   4.261   3.855  0.3046  0.2329  0.1047
    1SOL    HW2 9630   4.056   4.262   3.950  1.9295  0.2649  0.0680
    1SOL    HW3 9631   4.136   4.301   3.828 -0.3880  0.7513 -1.3180
    1SOL    MW4 9632   4.064   4.267   3.864  0.4272  0.3052 -0.0877
    1SOL     OW 9633   4.290   4.372   3.763  0.0748  0.1814 -0.2696
    1SOL    HW2 9634   4.289   4.460   3.801  0.0135 -0.1054  0.4156
    1SOL    HW3 9635   4.357   4.325   3.814 -0.4286 -0.3859 -0.1241
    1SOL    MW4 9636   4.299   4.377   3.775  0.0000  0.0687 -0.1600
    1SOL     OW 9637   0.168   0.021   4.134  0.0372  0.0298 -0.3435
    1SOL    HW2 9638   0.249   0.039   4.182 -0.0482 -0.8982  0.1814
    1SOL    HW3 9639   0.133  -0.058   4.176 -0.4473 -0.3473 -1.4372
    1SOL    MW4 9640   0.174   0.013   4.146 -0.0380 -0.1421 -0.4187
    1SOL     OW 9641   4.460   0.154   4.250  0.2147  0.2510 -0.1282
    1SOL    HW2 9642   4.493   0.171   4.338  0.9520 -0.2628 -0.2957
    1SOL    HW3 9643   4.532   0.107   4.207 -0.1856  0.3965 -0.9611
    1SOL    MW4 9644   4.474   0.150   4.256  0.2589  0.2024 -0.2599
    1SOL     OW 9645   4.478   0.402   4.125  0.1772 -0.5561 -0.1693
    1SOL    HW2 9646   4.463   0.318   4.167 -0.1107 -0.9398 -1.0274
    1SOL    HW3 9647   4.498   0.381   4.034  0.3491  0.2868 -0.3385
    1SOL    MW4 9648   4.479   0.388   4.119  0.1621 -0.4955 -0.3047
    1SOL     OW 9649   0.200   0.456   4.282  0.6335  0.2628  0.2440
    1SOL    HW2 9650   0.283   0.442   4.236  0.1077  0.1020 -0.6799
    1SOL    HW3 9651   0.134   0.428   4.219 -0.1985  1.9544  0.3372
    1SOL    MW4 9652   0.203   0.450   4.268  0.4543  0.4648  0.1345
    1SOL     OW 9653   0.217   0.725   4.180  0.7055  0.4344  0.0565
    1SOL    HW2 9654   0.156   0.772   4.237 -0.3028  0.5340 -1.0877
    1SOL    HW3 9655   0.206   0.633   4.205  0.1364  0.4579 -0.1151
    1SOL    MW4 9656   0.207   0.719   4.191  0.4974  0.4507 -0.1168
    1SOL     OW 9657   0.045   0.905   4.317  0.8108  0.1882  0.0998
    1SOL    HW2 9658  -0.036   0.864   4.286  0.7969 -0.3248  0.7987
    1SOL    HW3 9659   0.049   0.989   4.271  0.0377  0.0830 -0.1636
    1SOL    MW4 9660   0.035   0.910   4.306  0.7069  0.1066  0.1569
    1SOL     OW 9661   0.023   1.130   4.143  0.7748 -0.0072 -0.0511
    1SOL    HW2 9662   0.100   1.179   4.172 -0.1008  0.8950  0.8112
    1SOL    HW3 9663   0.020   1.144   4.049  0.7212  1.3562  0.1452
    1SOL    MW4 9664   0.033   1.138   4.135  0.6518  0.2917  0.0882
    1SOL     OW 9665   0.229   1.292   4.253 -0.1693 -0.1564  0.7725
    1SOL    HW2 9666   0.221   1.291   4.348 -1.4335 -0.7291  0.6691
    1SOL    HW3 9667   0.308   1.241   4.235  1.7486  2.4067  1.6309
    1SOL    MW4 9668   0.238   1.285   4.263 -0.0830  0.1063  0.8717
    1SOL     OW 9669   0.241   1.587   4.610  0.1046  0.2875  0.1559
    1SOL    HW2 9670   0.320   1.637   4.589  0.6516 -0.0076  1.4865
    1SOL    HW3 9671   0.172   1.654   4.614  0.6695  0.8461  1.0289
    1SOL    MW4 9672   0.242   1.603   4.608  0.2513  0.3225  0.4473
    1SOL     OW 9673   0.011   1.668   4.292 -0.4724 -0.1325 -0.6193
    1SOL    HW2 9674  -0.066   1.624   4.255 -0.7502  1.1198 -1.5618
    1SOL    HW3 9675   0.003   1.759   4.262  0.4784  0.3904  0.6966
    1SOL    MW4 9676  -0.000   1.674   4.283 -0.3837  0.1017 -0.5698
    1SOL     OW 9677   0.197   2.091   4.232  0.3435 -0.3764  0.3889
    1SOL    HW2 9678   0.197   2.070   4.325 -0.4158  1.0339  0.7233
    1SOL    HW3 9679   0.270   2.040   4.196  1.9292  0.6001  2.1095
    1SOL    MW4 9680   0.206   2.082   4.239  0.4526 -0.0613  0.6604
    1SOL     OW 9681   0.469   1.955   4.490 -0.2787 -0.0874 -0.1868
    1SOL    HW2 9682   0.378   1.984   4.489  0.1947  1.4574 -0.7413
    1SOL    HW3 9683   0.503   1.984   4.575 -0.1774 -0.2299 -0.1780
    1SOL    MW4 9684   0.462   1.963   4.501 -0.2029  0.0975 -0.2589
    1SOL     OW 9685   0.170   2.346   4.120 -0.2409  0.4877  0.4175
    1SOL    HW2 9686   0.244   2.390   4.161  1.0397 -0.4745 -0.8295
    1SOL    HW3 9687   0.172   2.257   4.155  0.1410  0.0095 -0.7852
    1SOL    MW4 9688   0.180   2.340   4.130 -0.0216  0.2978  0.0944
    1SOL     OW 9689   4.482   2.501   4.247 -0.0502  0.3420  0.1530
    1SOL    HW2 9690   4.389   2.481   4.240 -0.4833  1.2946  2.4678
    1SOL    HW3 9691   4.526   2.434   4.195 -2.0280 -0.0785 -1.0095
    1SOL    MW4 9692   4.475   2.490   4.239 -0.3682  0.4125  0.3047
    1SOL     OW 9693   0.003   2.752   4.160  0.2870 -0.3914  0.0580
    1SOL    HW2 9694   0.078   2.787   4.208  1.2716 -1.5514 -0.6038
    1SOL    HW3 9695  -0.010   2.664   4.197  0.5584 -0.9927 -1.2455
    1SOL    MW4 9696   0.011   2.745   4.171  0.4530 -0.6237 -0.2007
    1SOL     OW 9697   0.232   2.866   4.289  0.4251  0.3084  0.0889
    1SOL    HW2 9698   0.277   2.809   4.227 -0.5749  0.9958 -1.2681
    1SOL    HW3 9699   0.232   2.952   4.249 -0.8289  0.6208  0.7175
    1SOL    MW4 9700   0.238   2.870   4.276  0.1277  0.4404 -0.0072
    1SOL     OW 9701   0.251   3.128   4.167  0.1078 -0.2682 -0.1755
    1SOL    HW2 9702   0.333   3.159   4.206  0.3930  0.0448 -1.0151
    1SOL    HW3 9703   0.183   3.183   4.206  0.0890 -1.6051  1.7775
    1SOL    MW4 9704   0.253   3.139   4.177  0.1430 -0.4032 -0.0281
    1SOL     OW 9705   0.028   3.258   4.279  0.6525  0.4187  0.3351
    1SOL    HW2 9706  -0.058   3.217   4.265  0.5006  0.8467  0.0087
    1SOL    HW3 9707   0.021   3.344   4.237  2.0921 -0.5173 -1.9094
    1SOL    MW4 9708   0.015   3.264   4.272  0.8225  0.3517 -0.0038
    1SOL     OW 9709   0.014   3.515   4.168  0.4411  0.0052  0.1794
    1SOL    HW2 9710  -0.075   3.544   4.186  0.5593  1.1082 -0.9322
    1SOL    HW3 9711   0.019   3.508   4.073  1.6482  0.3604  0.2004
    1SOL    MW4 9712   0.003   3.518   4.158  0.6161  0.1976  0.0358
    1SOL     OW 9713   0.232   3.616   4.308 -0.1069 -0.2656  0.3917
    1SOL    HW2 9714   0.308   3.584   4.259 -1.2561 -2.4372 -0.0435
    1SOL    HW3 9715   0.157   3.594   4.252 -1.0933  1.4736  0.9953
    1SOL    MW4 9716   0.232   3.609   4.294 -0.3887 -0.3226  0.4139
    1SOL     OW 9717   0.234   3.863   4.175 -0.0962 -0.3332 -0.1701
    1SOL    HW2 9718   0.163   3.908   4.220  0.3386 -0.5230  0.7171
    1SOL    HW3 9719   0.243   3.780   4.222 -0.2992 -0.9609 -1.2286
    1SOL    MW4 9720   0.226   3.858   4.187 -0.0656 -0.4408 -0.1926
    1SOL     OW 9721   0.017   3.983   4.286 -0.4058  0.3063 -0.3499
    1SOL    HW2 9722  -0.007   3.977   4.378  0.3766  0.0875 -0.1562
    1SOL    HW3 9723  -0.058   3.947   4.239 -0.2871 -0.7732  0.2707
    1SOL    MW4 9724   0.004   3.977   4.292 -0.2869  0.1349 -0.2427
    1SOL     OW 9725   0.121   4.212   4.161 -0.1572  0.2079  0.0653
    1SOL    HW2 9726   0.066   4.146   4.201 -0.8264  0.3876 -0.5395
    1SOL    HW3 9727   0.090   4.217   4.070  1.2285 -0.0882 -0.4307
    1SOL    MW4 9728   0.110   4.204   4.154 -0.0626  0.1922 -0.0801
    1SOL     OW 9729   0.062   4.468   4.264  0.1554  0.4885  0.2738
    1SOL    HW2 9730   0.104   4.472   4.350 -0.1743  1.1956  0.4050
    1SOL    HW3 9731   0.074   4.377   4.235 -0.2229  0.1110  1.3034
    1SOL    MW4 9732   0.069   4.457   4.271  0.0620  0.5312  0.4272
    1SOL     OW 9733   0.628   0.019   4.126 -0.8344  0.2096  0.0891
    1SOL    HW2 9734   0.537   0.036   4.151 -0.9612  2.3799 -1.7063
    1SOL    HW3 9735   0.622  -0.019   4.039 -0.0216  0.3922 -0.0497
    1SOL    MW4 9736   0.615   0.017   4.118 -0.7439  0.5202 -0.1664
    1SOL     OW 9737   0.391   0.097   4.260  0.8009 -0.4190 -0.2953
    1SOL    HW2 9738   0.388   0.087   4.355  1.7466  0.1178 -0.1995
    1SOL    HW3 9739   0.394   0.192   4.246  1.7736 -0.5175 -0.8145
    1SOL    MW4 9740   0.391   0.108   4.270  1.0540 -0.3612 -0.3510
    1SOL     OW 9741   0.430   0.356   4.166  0.2351 -0.6616  0.6589
    1SOL    HW2 9742   0.506   0.401   4.202  0.6540 -1.2732  0.5442
    1SOL    HW3 9743   0.442   0.360   4.071 -0.5020  0.3167  0.6008
    1SOL    MW4 9744   0.441   0.362   4.158  0.1931 -0.6132  0.6361
    1SOL     OW 9745   0.635   0.516   4.254  0.5980 -0.3353 -0.1741
    1SOL    HW2 9746   0.713   0.468   4.225  0.7980  0.0482 -0.2708
    1SOL    HW3 9747   0.635   0.595   4.201 -0.1634 -0.5941 -0.5704
    1SOL    MW4 9748   0.645   0.520   4.243  0.5239 -0.3188 -0.2389
    1SOL     OW 9749   0.682   0.765   4.131  0.4140 -0.2122  0.0898
    1SOL    HW2 9750   0.600   0.806   4.160  1.6998  1.6979  1.0544
    1SOL    HW3 9751   0.671   0.756   4.036 -0.3030  1.4617 -0.0026
    1SOL    MW4 9752   0.669   0.769   4.122  0.4890  0.2607  0.2050
    1SOL     OW 9753   0.457   0.870   4.223  0.1833  0.0022 -0.2193
    1SOL    HW2 9754   0.442   0.961   4.198 -0.5053  0.0869  0.5011
    1SOL    HW3 9755   0.376   0.824   4.200  0.9026 -0.6407 -1.5359
    1SOL    MW4 9756   0.445   0.876   4.217  0.1874 -0.0715 -0.2985
    1SOL     OW 9757   0.431   1.141   4.178 -0.0704 -0.1456  0.0734
    1SOL    HW2 9758   0.519   1.162   4.208 -0.1555  0.1595  0.1115
    1SOL    HW3 9759   0.433   1.160   4.084  0.5298 -2.1955 -0.3413
    1SOL    MW4 9760   0.443   1.146   4.169 -0.0024 -0.3759  0.0234
    1SOL     OW 9761   0.664   1.242   4.267  0.3473 -0.0710 -0.2762
    1SOL    HW2 9762   0.710   1.236   4.351  1.2724 -0.0295 -0.7720
    1SOL    HW3 9763   0.682   1.330   4.236  0.1204 -0.1300 -0.5779
    1SOL    MW4 9764   0.673   1.253   4.274  0.4394 -0.0733 -0.3815
    1SOL     OW 9765   0.689   1.522   4.177  0.7050 -0.0215 -0.5679
    1SOL    HW2 9766   0.769   1.571   4.194  0.0446  0.5582  0.8786
    1SOL    HW3 9767   0.674   1.533   4.083  1.8261  0.5982 -0.6770
    1SOL    MW4 9768   0.698   1.530   4.167  0.7658  0.1367 -0.3915
    1SOL     OW 9769   0.253   1.540   4.175  0.9420  0.0763 -0.3966
    1SOL    HW2 9770   0.246   1.450   4.204 -0.0640 -0.3087 -1.7565
    1SOL    HW3 9771   0.178   1.585   4.215 -0.6209 -0.5232 -2.5491
    1SOL    MW4 9772   0.242   1.534   4.184  0.6030 -0.0536 -0.8602
    1SOL     OW 9773   0.411   1.960   4.122  0.0542  0.0335 -0.3090
    1SOL    HW2 9774   0.440   1.883   4.171 -0.9275 -1.6273 -2.3084
    1SOL    HW3 9775   0.435   1.942   4.031 -0.5441  1.9218 -0.8656
    1SOL    MW4 9776   0.418   1.948   4.117 -0.1543  0.0635 -0.6471
    1SOL     OW 9777   0.663   2.036   4.246  0.0559  0.2034 -0.2106
    1SOL    HW2 9778   0.641   2.010   4.335  0.8519  0.5034  0.0788
    1SOL    HW3 9779   0.585   2.014   4.194 -0.3997  0.0150  0.5504
    1SOL    MW4 9780   0.650   2.030   4.251  0.1007  0.2182 -0.0720
    1SOL     OW 9781   0.636   2.306   4.155  0.2899  0.0880 -0.2189
    1SOL    HW2 9782   0.663   2.230   4.206  0.3680 -0.3955 -0.9739
    1SOL    HW3 9783   0.665   2.287   4.066 -1.8035 -0.0865 -0.8931
    1SOL    MW4 9784   0.643   2.293   4.150  0.0240  0.0014 -0.4082
    1SOL     OW 9785   0.411   2.450   4.236 -0.5262 -0.2122 -0.3514
    1SOL    HW2 9786   0.435   2.530   4.190 -0.4523  0.0503  0.1353
    1SOL    HW3 9787   0.473   2.384   4.205 -0.2332  0.0567 -0.3398
    1SOL    MW4 9788   0.422   2.452   4.226 -0.4778 -0.1421 -0.2856
    1SOL     OW 9789   0.416   2.709   4.123  0.0476 -0.2569 -0.1379
    1SOL    HW2 9790   0.480   2.754   4.178  0.1507 -1.5406  0.8196
    1SOL    HW3 9791   0.451   2.716   4.034  0.7742  0.3170  0.1934
    1SOL    MW4 9792   0.429   2.716   4.118  0.1570 -0.3502  0.0319
    1SOL     OW 9793   0.654   2.841   4.241 -0.5605 -0.3894 -0.4211
    1SOL    HW2 9794   0.672   2.821   4.333 -0.1096 -0.8915 -0.6134
    1SOL    HW3 9795   0.678   2.934   4.232 -2.4951  0.2277  0.4298
    1SOL    MW4 9796   0.660   2.851   4.252 -0.7563 -0.3741 -0.3343
    1SOL     OW 9797   0.708   3.103   4.170  0.1956 -0.1702  0.2513
    1SOL    HW2 9798   0.784   3.126   4.223  0.5135 -0.1301 -0.2219
    1SOL    HW3 9799   0.641   3.166   4.197  0.6043  0.3598  0.0331
    1SOL    MW4 9800   0.709   3.114   4.181  0.2915 -0.0951  0.1597
    1SOL     OW 9801   0.485   3.249   4.262  0.2493  0.0941  0.1116
    1SOL    HW2 9802   0.458   3.233   4.352 -0.3877  1.1502  0.1118
    1SOL    HW3 9803   0.475   3.343   4.250  1.8563  0.1897 -0.5653
    1SOL    MW4 9804   0.480   3.259   4.272  0.3773  0.2458  0.0224
    1SOL     OW 9805   0.470   3.508   4.164 -0.1121 -0.7745 -0.0929
    1SOL    HW2 9806   0.561   3.532   4.182 -0.5870  1.0981 -0.0709
    1SOL    HW3 9807   0.468   3.488   4.070 -0.1250  1.4948 -0.6116
    1SOL    MW4 9808   0.482   3.509   4.154 -0.1764 -0.2282 -0.1583
    1SOL     OW 9809   0.712   3.621   4.266  0.0716  0.4629 -0.1306
    1SOL    HW2 9810   0.689   3.619   4.359 -1.2240  1.7429 -0.4050
    1SOL    HW3 9811   0.791   3.567   4.260 -1.2227 -1.7179  1.3137
    1SOL    MW4 9812   0.720   3.613   4.278 -0.2701  0.3440  0.0238
    1SOL     OW 9813   0.679   3.876   4.161  0.1861 -0.3710  0.0734
    1SOL    HW2 9814   0.610   3.924   4.207  0.3299 -1.0072  0.9731
    1SOL    HW3 9815   0.692   3.797   4.214  2.2547  0.1869  0.4548
    1SOL    MW4 9816   0.672   3.872   4.174  0.4780 -0.3810  0.2422
    1SOL     OW 9817   0.470   4.006   4.265 -0.1075 -0.3401  0.4166
    1SOL    HW2 9818   0.461   4.092   4.223 -0.7016 -1.0260 -0.8668
    1SOL    HW3 9819   0.389   3.960   4.243  0.9544 -1.8590 -0.3567
    1SOL    MW4 9820   0.458   4.011   4.257 -0.0458 -0.6309  0.1450
    1SOL     OW 9821   0.398   4.258   4.139  0.4675  0.1414 -0.0668
    1SOL    HW2 9822   0.309   4.252   4.174  0.5445 -2.6661 -0.2034
    1SOL    HW3 9823   0.387   4.243   4.045  1.1272 -0.8775  0.0092
    1SOL    MW4 9824   0.385   4.255   4.131  0.5646 -0.3633 -0.0739
    1SOL     OW 9825   0.582   4.455   4.277 -0.1011  0.3176  0.2757
    1SOL    HW2 9826   0.522   4.399   4.228 -1.0178  1.8949 -0.4402
    1SOL    HW3 9827   0.597   4.530   4.220  0.3205  1.2759  1.6219
    1SOL    MW4 9828   0.576   4.457   4.263 -0.1664  0.6523  0.3591
    1SOL     OW 9829   1.081   0.010   4.151  0.2428  0.1676  0.2259
    1SOL    HW2 9830   1.097  -0.077   4.189 -1.4949 -0.7534 -1.0829
    1SOL    HW3 9831   1.095  -0.002   4.057  1.0243  1.5726  0.1577
    1SOL    MW4 9832   1.085  -0.003   4.144  0.1166  0.2313  0.0443
    1SOL     OW 9833   0.844   0.128   4.251  0.0054  0.1265 -0.0517
    1SOL    HW2 9834   0.907   0.064   4.218 -0.5408 -0.1241 -0.6136
    1SOL    HW3 9835   0.760   0.100   4.214 -0.7143 -0.4884  2.0182
    1SOL    MW4 9836   0.842   0.116   4.241 -0.1616  0.0123  0.1469
    1SOL     OW 9837   0.879   0.398   4.160 -0.2943  0.4388  0.0639
    1SOL    HW2 9838   0.967   0.428   4.184  0.5357 -1.1912 -0.8295
    1SOL    HW3 9839   0.877   0.306   4.186 -1.3288  0.1643 -0.9518
    1SOL    MW4 9840   0.890   0.390   4.166 -0.3213  0.1875 -0.1879
    1SOL     OW 9841   1.126   0.516   4.225  0.1373  0.2950  0.4618
    1SOL    HW2 9842   1.132   0.531   4.320 -0.6398 -0.9200  0.7207
    1SOL    HW3 9843   1.203   0.462   4.204  0.6998  1.1658  0.2670
    1SOL    MW4 9844   1.137   0.511   4.235  0.1091  0.2496  0.4702
    1SOL     OW 9845   1.131   0.772   4.112  0.2806  0.6751 -0.4773
    1SOL    HW2 9846   1.196   0.825   4.158 -0.4972  0.3178  1.0653
    1SOL    HW3 9847   1.130   0.689   4.159  0.6556 -0.3179 -2.1684
    1SOL    MW4 9848   1.140   0.768   4.124  0.2275  0.4969 -0.4969
    1SOL     OW 9849   0.906   0.865   4.254  0.0175  0.4619  0.0077
    1SOL    HW2 9850   0.984   0.845   4.203 -0.4167  0.0825 -0.5132
    1SOL    HW3 9851   0.835   0.823   4.206 -0.3381 -0.2405  1.1296
    1SOL    MW4 9852   0.907   0.857   4.241 -0.0867  0.3192  0.0868
    1SOL     OW 9853   0.857   1.115   4.124 -0.8460  0.1787 -0.1594
    1SOL    HW2 9854   0.862   1.026   4.160 -0.8665 -0.1204 -0.8915
    1SOL    HW3 9855   0.798   1.161   4.183  0.6818  0.2531  1.3553
    1SOL    MW4 9856   0.850   1.109   4.137 -0.6470  0.1491 -0.0567
    1SOL     OW 9857   1.095   1.199   4.237  1.2092  0.0993  0.0884
    1SOL    HW2 9858   1.073   1.168   4.325  0.8678  1.4980  0.5152
    1SOL    HW3 9859   1.019   1.178   4.184  1.5682 -1.0920  0.0377
    1SOL    MW4 9860   1.082   1.192   4.242  1.2116  0.1267  0.1378
    1SOL     OW 9861   1.190   1.476   4.164 -0.0434 -0.2990 -0.2716
    1SOL    HW2 9862   1.190   1.531   4.242  0.5913 -1.5051  0.5958
    1SOL    HW3 9863   1.172   1.387   4.197  0.2080 -0.8083 -1.4839
    1SOL    MW4 9864   1.188   1.471   4.179  0.0733 -0.5254 -0.3176
    1SOL     OW 9865   0.882   1.682   4.332  0.1698  0.0036 -0.1857
    1SOL    HW2 9866   0.968   1.655   4.365  0.6869 -0.5554 -1.9439
    1SOL    HW3 9867   0.898   1.764   4.285 -0.9655  2.1058  2.8860
    1SOL    MW4 9868   0.895   1.689   4.331  0.0882  0.2072 -0.0124
    1SOL     OW 9869   0.918   1.909   4.167  0.0970  0.0735 -0.1040
    1SOL    HW2 9870   0.843   1.966   4.184  0.7412  0.6787  0.7299
    1SOL    HW3 9871   0.922   1.904   4.071 -0.6773  0.4745 -0.1657
    1SOL    MW4 9872   0.908   1.916   4.157  0.0799  0.2064 -0.0019
    1SOL     OW 9873   1.123   2.074   4.236  0.7560  0.4300  0.0200
    1SOL    HW2 9874   1.106   2.099   4.326  1.0417 -1.5700  0.6481
    1SOL    HW3 9875   1.058   2.006   4.217  1.7817 -0.3605 -0.7204
    1SOL    MW4 9876   1.112   2.069   4.245  0.9290  0.0620  0.0052
    1SOL     OW 9877   1.117   2.337   4.106 -0.2009 -0.0311 -0.4499
    1SOL    HW2 9878   1.033   2.365   4.142 -0.5865 -1.0197 -0.5527
    1SOL    HW3 9879   1.135   2.254   4.151  1.0503  0.5028  0.0645
    1SOL    MW4 9880   1.109   2.330   4.117 -0.0867 -0.0913 -0.3953
    1SOL     OW 9881   0.869   2.430   4.173  0.1470  0.1820  0.1225
    1SOL    HW2 9882   0.854   2.521   4.148 -0.4847  0.3913  1.2045
    1SOL    HW3 9883   0.784   2.387   4.160  0.0547  0.0876  1.0023
    1SOL    MW4 9884   0.855   2.436   4.168  0.0516  0.1972  0.3815
    1SOL     OW 9885   0.856   2.706   4.083 -0.1658 -0.0707 -0.6518
    1SOL    HW2 9886   0.929   2.739   4.136  0.4812 -1.2720 -0.7777
    1SOL    HW3 9887   0.779   2.751   4.118  0.3137 -0.5127  1.0111
    1SOL    MW4 9888   0.856   2.716   4.094 -0.0172 -0.2875 -0.4497
    1SOL     OW 9889   1.094   2.814   4.179 -0.3372 -0.2060 -0.2937
    1SOL    HW2 9890   1.103   2.909   4.189 -0.4411 -0.3637  1.4691
    1SOL    HW3 9891   1.176   2.787   4.137 -0.7435  0.7822 -1.7809
    1SOL    MW4 9892   1.106   2.823   4.175 -0.4047 -0.0963 -0.2580
    1SOL     OW 9893   1.141   3.095   4.182  0.5537 -0.0939  0.6911
    1SOL    HW2 9894   1.211   3.151   4.216  0.4648 -0.5719  1.6748
    1SOL    HW3 9895   1.161   3.087   4.089  1.1982  0.6613  0.7523
    1SOL    MW4 9896   1.153   3.101   4.174  0.6270 -0.0572  0.8287
    1SOL     OW 9897   0.936   3.220   4.312  0.2885 -0.0432  0.4147
    1SOL    HW2 9898   0.947   3.197   4.404  1.4540  0.0118  0.3039
    1SOL    HW3 9899   1.012   3.181   4.269  1.1692  2.1729 -0.1018
    1SOL    MW4 9900   0.947   3.212   4.319  0.5584  0.2565  0.3319
    1SOL     OW 9901   0.941   3.480   4.202 -0.3548 -0.0918 -0.1103
    1SOL    HW2 9902   0.934   3.387   4.224 -0.3457 -0.0214  0.2007
    1SOL    HW3 9903   0.944   3.483   4.107  0.6287 -0.4794 -0.0964
    1SOL    MW4 9904   0.940   3.468   4.193 -0.2238 -0.1338 -0.0672
    1SOL     OW 9905   1.126   3.675   4.298 -0.2763 -0.0703 -0.2628
    1SOL    HW2 9906   1.107   3.748   4.239 -1.3241 -0.3055 -0.2232
    1SOL    HW3 9907   1.064   3.607   4.273  0.0349 -0.5878  0.3550
    1SOL    MW4 9908   1.115   3.676   4.287 -0.3736 -0.1693 -0.1760
    1SOL     OW 9909   1.081   3.924   4.137 -0.0662 -0.0310  0.0162
    1SOL    HW2 9910   1.162   3.940   4.185  0.8448 -2.1153 -0.7792
    1SOL    HW3 9911   1.014   3.971   4.186  1.5690  1.4465  0.8614
    1SOL    MW4 9912   1.082   3.932   4.149  0.2698 -0.1109  0.0229
    1SOL     OW 9913   0.867   4.055   4.267 -0.3310  0.7187  0.0374
    1SOL    HW2 9914   0.842   4.141   4.233  0.5329  0.3284 -1.6170
    1SOL    HW3 9915   0.805   3.994   4.228  0.1799  0.3693 -0.2343
    1SOL    MW4 9916   0.856   4.059   4.258 -0.1496  0.6213 -0.2165
    1SOL     OW 9917   0.808   4.310   4.156  0.4034 -0.0137 -0.2168
    1SOL    HW2 9918   0.891   4.342   4.191  0.6528  0.9332 -1.6146
    1SOL    HW3 9919   0.741   4.362   4.201  0.7077  1.0449 -0.9786
    1SOL    MW4 9920   0.810   4.321   4.166  0.4765  0.2508 -0.5021
    1SOL     OW 9921   1.063   4.398   4.251 -0.0157  0.0237 -0.3211
    1SOL    HW2 9922   1.069   4.409   4.346 -0.9074  1.3569 -0.4105
    1SOL    HW3 9923   1.110   4.316   4.234 -0.7083 -0.7494  1.3768
    1SOL    MW4 9924   1.070   4.389   4.261 -0.2247  0.0978 -0.1087
    1SOL     OW 9925   1.532   4.620   4.123 -0.0982  0.1492  0.7478
    1SOL    HW2 9926   1.617   4.658   4.146  0.9080 -0.5213 -1.6589
    1SOL    HW3 9927   1.469   4.668   4.176  1.8017  0.4712  2.7985
    1SOL    MW4 9928   1.535   4.631   4.133  0.2853  0.1030  0.7010
    1SOL     OW 9929   1.328   0.085   4.261  0.2422 -0.1760  0.1075
    1SOL    HW2 9930   1.325   0.095   4.356 -0.5992  1.6593 -0.0964
    1SOL    HW3 9931   1.240   0.054   4.238  1.0105 -2.4584  0.0942
    1SOL    MW4 9932   1.316   0.082   4.270  0.2326 -0.2350  0.0792
    1SOL     OW 9933   1.343   0.348   4.161 -0.3486 -0.1305  0.1711
    1SOL    HW2 9934   1.424   0.384   4.198 -1.0852  0.0620  1.6286
    1SOL    HW3 9935   1.334   0.263   4.202 -0.7168 -0.3019 -0.2596
    1SOL    MW4 9936   1.352   0.342   4.171 -0.4942 -0.1277  0.3066
    1SOL     OW 9937   1.582   0.451   4.229  0.6062 -0.0439 -0.7944
    1SOL    HW2 9938   1.595   0.480   4.319  1.2068 -0.5728 -0.7069
    1SOL    HW3 9939   1.574   0.532   4.179  0.4185  0.2523 -0.2881
    1SOL    MW4 9940   1.583   0.466   4.234  0.6608 -0.0746 -0.7162
    1SOL     OW 9941   1.578   0.727   4.165 -0.2077 -0.1305 -0.4617
    1SOL    HW2 9942   1.663   0.767   4.186  0.3888 -1.4324 -0.3293
    1SOL    HW3 9943   1.570   0.737   4.070 -0.6757  1.4527 -0.2733
    1SOL    MW4 9944   1.588   0.733   4.155 -0.1907 -0.0934 -0.4191
    1SOL     OW 9945   1.340   0.898   4.237 -0.1732  0.4109  0.1821
    1SOL    HW2 9946   1.354   0.980   4.190  1.0250  0.6677  0.9684
    1SOL    HW3 9947   1.419   0.847   4.221 -0.2813  0.0071  0.9096
    1SOL    MW4 9948   1.352   0.902   4.229 -0.0294  0.3914  0.3815
    1SOL     OW 9949   1.335   1.129   4.091  0.1710  0.0179 -0.4302
    1SOL    HW2 9950   1.250   1.148   4.131  0.0624 -0.0075 -0.6454
    1SOL    HW3 9951   1.316   1.122   3.997  0.4979  0.5423 -0.5394
    1SOL    MW4 9952   1.321   1.131   4.084  0.1998  0.0837 -0.4730
    1SOL     OW 9953   1.557   1.248   4.224  0.0891  0.6016  0.3182
    1SOL    HW2 9954   1.527   1.236   4.314  0.4555 -2.0057  0.1422
    1SOL    HW3 9955   1.481   1.223   4.171  0.4384  0.4141 -0.0929
    1SOL    MW4 9956   1.543   1.243   4.229  0.1836  0.2328  0.2408
    1SOL     OW 9957   1.490   1.514   4.152 -0.0892  0.3368 -0.3090
    1SOL    HW2 9958   1.398   1.491   4.154  0.0947 -0.5487 -1.7190
    1SOL    HW3 9959   1.536   1.432   4.170  0.4395  0.6738 -0.1042
    1SOL    MW4 9960   1.484   1.500   4.155  0.0049  0.2644 -0.4678
    1SOL     OW 9961   1.332   1.792   4.398 -0.0077 -0.4371 -0.5124
    1SOL    HW2 9962   1.335   1.866   4.459 -0.3929 -1.0113  0.2175
    1SOL    HW3 9963   1.324   1.832   4.312  2.0726  0.4338 -0.3327
    1SOL    MW4 9964   1.331   1.807   4.395  0.2159 -0.3980 -0.3924
    1SOL     OW 9965   1.338   1.929   4.158  0.4198  0.2608 -0.1530
    1SOL    HW2 9966   1.417   1.977   4.182 -0.0804  1.1058 -0.1829
    1SOL    HW3 9967   1.266   1.987   4.182 -0.1350  0.3849 -2.0594
    1SOL    MW4 9968   1.339   1.943   4.164  0.2805  0.3887 -0.4091
    1SOL     OW 9969   1.561   2.088   4.213  0.8368  0.1569 -0.1997
    1SOL    HW2 9970   1.563   2.085   4.309 -0.2424 -0.2979 -0.1843
    1SOL    HW3 9971   1.548   2.181   4.193  0.0542  0.1203  0.1220
    1SOL    MW4 9972   1.560   2.100   4.223  0.5912  0.0923 -0.1554
    1SOL     OW 9973   1.564   2.380   4.146  0.1142 -0.2744  0.3400
    1SOL    HW2 9974   1.648   2.418   4.171 -0.0127  0.2648 -0.0526
    1SOL    HW3 9975   1.571   2.364   4.052 -0.1244 -0.4948  0.3572
    1SOL    MW4 9976   1.576   2.383   4.137  0.0660 -0.2327  0.2899
    1SOL     OW 9977   1.316   2.481   4.245 -0.2711  0.0079  0.8051
    1SOL    HW2 9978   1.260   2.427   4.190  1.0996  0.6493 -1.2679
    1SOL    HW3 9979   1.405   2.454   4.223  0.3590  1.6684  1.2469
    1SOL    MW4 9980   1.321   2.470   4.235 -0.0070  0.3116  0.5903
    1SOL     OW 9981   1.095   2.864   4.475  0.1686 -0.6526  0.1660
    1SOL    HW2 9982   1.180   2.907   4.466 -0.1249 -0.0152  0.4119
    1SOL    HW3 9983   1.071   2.840   4.386  0.4232 -0.4764  0.0491
    1SOL    MW4 9984   1.103   2.867   4.462  0.1634 -0.5453  0.1836
    1SOL     OW 9985   1.600   2.998   4.341 -0.6586  0.3258 -0.0362
    1SOL    HW2 9986   1.578   3.060   4.272 -1.8848 -0.6082 -0.5024
    1SOL    HW3 9987   1.691   2.974   4.322 -0.4855  1.2442 -0.4094
    1SOL    MW4 9988   1.609   3.003   4.329 -0.7974  0.3238 -0.1464
    1SOL     OW 9989   1.541   3.184   4.153  0.1775  0.0261  0.1604
    1SOL    HW2 9990   1.622   3.222   4.189  0.5516 -0.0507 -0.5840
    1SOL    HW3 9991   1.471   3.224   4.204  0.7413 -0.8973  1.7249
    1SOL    MW4 9992   1.543   3.194   4.165  0.3012 -0.1059  0.2685
    1SOL     OW 9993   1.320   3.280   4.293  0.5747 -0.4465 -0.1719
    1SOL    HW2 9994   1.285   3.285   4.383  0.4807 -1.9196 -0.1089
    1SOL    HW3 9995   1.351   3.368   4.274  0.2542 -0.0312  1.1834
    1SOL    MW4 9996   1.319   3.292   4.303  0.5201 -0.5858  0.0153
    1SOL     OW 9997   1.346   3.538   4.197 -0.2742 -0.0199 -0.2243
    1SOL    HW2 9998   1.267   3.576   4.235 -0.1076  1.1513 -1.0179
    1SOL    HW3 9999   1.333   3.546   4.102  1.1610  0.9808 -0.3467
    1SOL    MW410000   1.334   3.544   4.189 -0.0629  0.2668 -0.3452
    1SOL     OW10001   1.594   3.644   4.300 -0.3515  0.0055  0.2439
    1SOL    HW210002   1.579   3.692   4.381 -1.0484  0.2477 -0.0335
    1SOL    HW310003   1.512   3.597   4.283 -0.9274  1.5223 -1.3828
    1SOL    MW410004   1.581   3.644   4.308 -0.5192  0.2377 -0.0076
    1SOL     OW10005   1.528   3.857   4.135 -0.4251 -0.0638  0.3039
    1SOL    HW210006   1.469   3.910   4.189  1.1697  0.2551  1.7697
    1SOL    HW310007   1.544   3.779   4.188  0.4038 -0.1895 -0.1231
    1SOL    MW410008   1.522   3.853   4.149 -0.1054 -0.0379  0.4411
    1SOL     OW10009   1.314   4.008   4.269  0.2342 -0.4578 -0.1418
    1SOL    HW210010   1.298   4.015   4.363  1.1001  0.1264 -0.0384
    1SOL    HW310011   1.277   4.089   4.233 -0.5656 -0.9166 -0.3759
    1SOL    MW410012   1.307   4.020   4.276  0.2429 -0.4411 -0.1588
    1SOL     OW10013   1.260   4.226   4.121  0.4851 -0.1498 -0.0019
    1SOL    HW210014   1.347   4.262   4.139  1.2767 -0.6416 -2.6373
    1SOL    HW310015   1.252   4.230   4.026 -2.8966  1.0680  0.2691
    1SOL    MW410016   1.270   4.232   4.111  0.1434 -0.0539 -0.3138
    1SOL     OW10017   1.520   4.325   4.190 -0.0507 -0.1725 -0.0596
    1SOL    HW210018   1.529   4.418   4.170  0.9779 -0.1996  0.2430
    1SOL    HW310019   1.606   4.288   4.169 -0.5806 -1.1184 -0.5539
    1SOL    MW410020   1.533   4.332   4.185  0.0153 -0.3014 -0.0844
    1SOL     OW10021   2.029   4.622   4.141 -0.4158 -0.1115  0.4013
    1SOL    HW210022   1.951   4.675   4.155 -0.8229 -0.7319  0.5357
    1SOL    HW310023   2.041   4.622   4.046  0.5257  1.5282  0.5044
    1SOL    MW410024   2.020   4.629   4.130 -0.3452  0.0224  0.4320
    1SOL     OW10025   1.802   0.080   4.204  0.0379 -0.3669 -0.5082
    1SOL    HW210026   1.758   0.068   4.289  1.2165  0.1921  0.2009
    1SOL    HW310027   1.793   0.173   4.185  0.2483 -0.3895 -0.7220
    1SOL    MW410028   1.795   0.091   4.213  0.2211 -0.2961 -0.4430
    1SOL     OW10029   1.827   0.343   4.130 -0.5314 -0.0189 -0.2489
    1SOL    HW210030   1.897   0.399   4.163 -0.6928  0.5998 -0.9461
    1SOL    HW310031   1.747   0.384   4.163 -0.6391  0.0083 -0.5488
    1SOL    MW410032   1.825   0.356   4.139 -0.5667  0.0663 -0.3805
    1SOL     OW10033   2.015   0.525   4.223 -0.1536 -0.7418 -0.1756
    1SOL    HW210034   2.013   0.511   4.318 -0.1400  1.3175  0.1441
    1SOL    HW310035   2.096   0.483   4.194  0.5859 -0.0886  0.9278
    1SOL    MW410036   2.025   0.517   4.232 -0.0544 -0.3839  0.0129
    1SOL     OW10037   2.027   0.781   4.118 -0.5229 -0.1571 -0.0098
    1SOL    HW210038   2.104   0.823   4.157 -1.0627  0.2064  0.6678
    1SOL    HW310039   2.026   0.694   4.157  0.5471 -0.7910 -1.3517
    1SOL    MW410040   2.037   0.775   4.128 -0.4528 -0.1928 -0.0978
    1SOL     OW10041   1.801   0.869   4.249 -0.1709 -0.3195  0.2662
    1SOL    HW210042   1.805   0.964   4.235  0.2664 -0.2920  0.5534
    1SOL    HW310043   1.886   0.837   4.219  0.6439 -0.3024  2.4896
    1SOL    MW410044   1.813   0.877   4.243 -0.0057 -0.3136  0.5970
    1SOL     OW10045   1.803   1.132   4.182  0.0691 -0.1927 -0.5810
    1SOL    HW210046   1.861   1.196   4.223 -0.7038 -0.1059  0.3902
    1SOL    HW310047   1.716   1.172   4.185  0.0076 -0.1227 -2.4427
    1SOL    MW410048   1.799   1.146   4.187 -0.0409 -0.1720 -0.6986
    1SOL     OW10049   2.016   1.307   4.278 -0.0396 -0.0255 -0.3981
    1SOL    HW210050   2.073   1.254   4.223  0.8909  0.5641 -0.0192
    1SOL    HW310051   2.018   1.394   4.238  2.4076  0.9760  1.7829
    1SOL    MW410052   2.023   1.311   4.265  0.4060  0.1845 -0.0601
    1SOL     OW10053   2.061   1.550   4.161 -1.0549  0.1353  0.3053
    1SOL    HW210054   2.153   1.566   4.184 -0.9286  0.4756 -0.4153
    1SOL    HW310055   2.061   1.547   4.065 -1.8295  0.3218  0.2992
    1SOL    MW410056   2.073   1.552   4.151 -1.1406  0.2048  0.2098
    1SOL     OW10057   1.982   1.745   4.346 -0.0421  0.2094 -0.6684
    1SOL    HW210058   1.978   1.829   4.300  0.5722 -0.0846 -1.2691
    1SOL    HW310059   1.989   1.680   4.277 -0.3443 -0.3332 -0.1966
    1SOL    MW410060   1.982   1.747   4.331 -0.0008  0.0991 -0.6852
    1SOL     OW10061   1.727   1.883   4.140 -0.0174  0.5507  0.1209
    1SOL    HW210062   1.687   1.817   4.196 -1.3714 -0.6427 -2.1892
    1SOL    HW310063   1.683   1.964   4.162 -0.1597  0.1969  1.1496
    1SOL    MW410064   1.716   1.885   4.150 -0.2147  0.3464 -0.0482
    1SOL     OW10065   1.990   1.982   4.183  0.0846  0.2055  0.2548
    1SOL    HW210066   1.994   2.076   4.169 -0.0668  0.3392  1.0745
    1SOL    HW310067   1.897   1.961   4.182  0.1742 -0.1936 -1.5155
    1SOL    MW410068   1.978   1.992   4.181  0.0764  0.1705  0.1292
    1SOL     OW10069   1.819   2.430   4.243 -0.2498 -0.1357  0.2784
    1SOL    HW210070   1.776   2.414   4.327  1.5299  0.2873  1.3062
    1SOL    HW310071   1.839   2.524   4.245 -1.6797  0.2237 -1.3552
    1SOL    MW410072   1.816   2.441   4.254 -0.2035 -0.0324  0.1988
    1SOL     OW10073   1.590   2.717   4.247 -0.2723  0.4952 -0.0195
    1SOL    HW210074   1.574   2.807   4.277 -1.3662  0.8389 -1.5804
    1SOL    HW310075   1.685   2.712   4.238 -0.2261  1.6599 -0.3545
    1SOL    MW410076   1.600   2.728   4.250 -0.4106  0.6943 -0.2699
    1SOL     OW10077   1.721   2.651   3.966 -0.9452  0.3080 -0.1817
    1SOL    HW210078   1.627   2.641   3.950 -1.1253 -0.7739  1.4856
    1SOL    HW310079   1.726   2.681   4.057  0.2619  1.9300 -0.7588
    1SOL    MW410080   1.709   2.654   3.976 -0.8097  0.3798 -0.0379
    1SOL     OW10081   1.791   2.960   4.048  0.1850 -0.1307 -0.0137
    1SOL    HW210082   1.816   2.947   4.139  0.7276 -0.5649 -0.2267
    1SOL    HW310083   1.847   2.901   3.998  0.9310  1.1734 -0.7543
    1SOL    MW410084   1.802   2.951   4.053  0.3549 -0.0160 -0.1392
    1SOL     OW10085   1.859   3.217   3.915  0.1872 -0.0546 -0.2773
    1SOL    HW210086   1.822   3.142   3.962 -0.6938  0.9152  0.6097
    1SOL    HW310087   1.928   3.180   3.860 -0.0267 -1.4656  0.3938
    1SOL    MW410088   1.863   3.202   3.914  0.0427 -0.1128 -0.0715
    1SOL     OW10089   1.750   3.291   4.289 -0.1831 -0.6276 -0.7315
    1SOL    HW210090   1.780   3.378   4.261 -0.7419 -0.6480 -1.3998
    1SOL    HW310091   1.824   3.234   4.271  0.7913 -0.0260  1.2227
    1SOL    MW410092   1.764   3.295   4.283 -0.1283 -0.5507 -0.5622
    1SOL     OW10093   1.831   3.552   4.194  0.0535  0.3729 -0.2416
    1SOL    HW210094   1.755   3.599   4.230  0.0273  1.6258 -1.8657
    1SOL    HW310095   1.817   3.554   4.099  1.0632 -1.2351 -0.4432
    1SOL    MW410096   1.819   3.559   4.186  0.1833  0.3262 -0.4826
    1SOL     OW10097   2.078   3.641   4.237  0.0012 -0.2296  0.0823
    1SOL    HW210098   2.093   3.727   4.198  0.8508  0.7421  2.4753
    1SOL    HW310099   1.991   3.616   4.206  0.5785  0.5591 -2.2839
    1SOL    MW410100   2.069   3.649   4.228  0.1895  0.0029  0.0858
    1SOL     OW10101   2.039   3.897   4.124 -0.1054  0.1600 -0.2139
    1SOL    HW210102   1.953   3.930   4.151  1.1037  2.9279  0.3432
    1SOL    HW310103   2.036   3.901   4.028 -1.1178 -1.2060 -0.2632
    1SOL    MW410104   2.027   3.902   4.115 -0.0794  0.3450 -0.1469
    1SOL     OW10105   1.780   3.964   4.230  0.0189  0.2674  0.1818
    1SOL    HW210106   1.769   4.058   4.212 -0.2140  0.2244  0.0960
    1SOL    HW310107   1.701   3.924   4.194 -0.4739  0.1855  1.3408
    1SOL    MW410108   1.768   3.971   4.223 -0.0768  0.2508  0.3233
    1SOL     OW10109   1.776   4.231   4.141 -0.4657 -0.3688 -0.1018
    1SOL    HW210110   1.862   4.260   4.171 -0.9876  0.8114  0.3134
    1SOL    HW310111   1.782   4.234   4.046 -0.1849  0.1800 -0.0734
    1SOL    MW410112   1.788   4.235   4.132 -0.4973 -0.1407 -0.0434
    1SOL     OW10113   2.011   4.367   4.248 -0.1295 -0.2965 -0.3618
    1SOL    HW210114   2.025   4.358   4.343  0.8196 -1.5113 -0.5950
    1SOL    HW310115   2.018   4.461   4.232  0.0834 -0.1103  0.7278
    1SOL    MW410116   2.014   4.378   4.259  0.0238 -0.4320 -0.2484
    1SOL     OW10117   2.476   4.619   4.117 -0.0149 -0.2393  0.0863
    1SOL    HW210118   2.555   4.657   4.156  0.3830 -0.7223 -0.2293
    1SOL    HW310119   2.457   4.543   4.172  0.8208 -1.1958 -0.9180
    1SOL    MW410120   2.484   4.614   4.130  0.1478 -0.4292 -0.0877
    1SOL     OW10121   2.250   0.112   4.234 -0.4319 -0.0857  0.1069
    1SOL    HW210122   2.312   0.062   4.182 -0.4574 -0.7716  0.7155
    1SOL    HW310123   2.165   0.071   4.216 -0.4179 -0.4364  0.7952
    1SOL    MW410124   2.247   0.100   4.225 -0.4334 -0.2224  0.2775
    1SOL     OW10125   2.257   0.381   4.122  0.6738 -0.1035 -0.1302
    1SOL    HW210126   2.252   0.294   4.160  0.1213  0.2399  0.5991
    1SOL    HW310127   2.276   0.366   4.029 -1.5122 -1.0713 -0.4550
    1SOL    MW410128   2.259   0.368   4.115  0.3126 -0.1859 -0.0768
    1SOL     OW10129   2.476   0.543   4.226  0.0939  0.0128  0.1636
    1SOL    HW210130   2.479   0.523   4.320 -0.4205 -0.4181  0.0965
    1SOL    HW310131   2.403   0.490   4.193  1.4824 -1.3154 -0.8346
    1SOL    MW410132   2.466   0.533   4.234  0.2091 -0.2192  0.0234
    1SOL     OW10133   2.496   0.803   4.158  0.1827  0.4413  0.0850
    1SOL    HW210134   2.485   0.711   4.184  0.1348  0.5596  0.4965
    1SOL    HW310135   2.504   0.800   4.063  0.1009  0.0173  0.0872
    1SOL    MW410136   2.496   0.790   4.149  0.1655  0.4009  0.1402
    1SOL     OW10137   2.247   0.922   4.240  0.2645 -0.5488  0.2154
    1SOL    HW210138   2.253   0.923   4.336  0.2779 -0.1362  0.2105
    1SOL    HW310139   2.322   0.870   4.212  1.3225  0.8886  0.3487
    1SOL    MW410140   2.258   0.915   4.249  0.4063 -0.3046  0.2322
    1SOL     OW10141   2.206   1.178   4.124  0.4438  0.4121  0.3926
    1SOL    HW210142   2.281   1.230   4.155  2.2149 -2.0018  0.3233
    1SOL    HW310143   2.220   1.091   4.162 -1.3297 -0.5963 -1.1662
    1SOL    MW410144   2.218   1.173   4.133  0.4435 -0.0395  0.1783
    1SOL     OW10145   2.453   1.275   4.219 -0.2975 -0.2287 -0.0663
    1SOL    HW210146   2.438   1.311   4.306 -0.0544 -0.9951  0.2964
    1SOL    HW310147   2.545   1.248   4.220 -0.4951 -0.9328 -0.3009
    1SOL    MW410148   2.463   1.276   4.231 -0.2916 -0.4227 -0.0491
    1SOL     OW10149   2.523   1.513   4.083  0.0535 -0.3001  0.2508
    1SOL    HW210150   2.518   1.419   4.101  1.3579 -0.4076  0.1086
    1SOL    HW310151   2.520   1.520   3.988  0.9422 -0.2719  0.2205
    1SOL    MW410152   2.522   1.501   4.073  0.3426 -0.3105  0.2284
    1SOL     OW10153   2.322   1.649   4.223 -0.2330  0.3898 -0.0134
    1SOL    HW210154   2.347   1.653   4.316 -0.1549 -0.7575  0.0279
    1SOL    HW310155   2.400   1.617   4.179 -1.2947 -2.4566  0.0145
    1SOL    MW410156   2.335   1.645   4.230 -0.3629 -0.1370 -0.0038
    1SOL     OW10157   2.259   1.910   4.171  0.5852 -0.0709 -0.2856
    1SOL    HW210158   2.163   1.918   4.176  0.4799 -1.1434 -0.4755
    1SOL    HW310159   2.277   1.820   4.199  1.5203  0.0500 -0.4857
    1SOL    MW410160   2.248   1.899   4.176  0.6948 -0.1966 -0.3366
    1SOL     OW10161   2.455   2.304   4.097 -0.2440  0.1916 -0.2704
    1SOL    HW210162   2.462   2.221   4.144 -2.4849  0.6486  0.9725
    1SOL    HW310163   2.463   2.281   4.005  1.2112 -1.1134  0.1550
    1SOL    MW410164   2.457   2.290   4.091 -0.3476  0.0796 -0.0501
    1SOL     OW10165   2.211   2.379   4.220  0.0705  0.2697 -0.2259
    1SOL    HW210166   2.284   2.355   4.164  0.5333 -0.8431  0.8286
    1SOL    HW310167   2.134   2.344   4.176  0.3926 -0.2775 -0.3536
    1SOL    MW410168   2.210   2.371   4.207  0.1740  0.0510 -0.1035
    1SOL     OW10169   1.970   2.769   3.945 -0.5070  0.2086  0.0376
    1SOL    HW210170   1.894   2.712   3.949 -0.1175 -0.3577 -0.5387
    1SOL    HW310171   1.996   2.781   4.036 -0.1457 -1.1410  0.1215
    1SOL    MW410172   1.963   2.763   3.957 -0.4079 -0.0443 -0.0274
    1SOL     OW10173   2.168   3.029   4.048  0.2406 -0.5717  0.0149
    1SOL    HW210174   2.111   3.040   3.972 -0.4930 -1.5079  0.4125
    1SOL    HW310175   2.128   2.957   4.097  1.9888 -1.5027  0.1083
    1SOL    MW410176   2.155   3.021   4.045  0.3746 -0.8180  0.0796
    1SOL     OW10177   2.478   2.764   4.248  0.2881 -0.2063  0.1908
    1SOL    HW210178   2.405   2.717   4.207  0.6135  0.5442 -1.2976
    1SOL    HW310179   2.447   2.854   4.256  1.2011  0.2163 -0.8717
    1SOL    MW410180   2.464   2.769   4.243  0.4513 -0.0515 -0.1459
    1SOL     OW10181   2.735   2.845   4.558  0.2195 -0.1098  0.2830
    1SOL    HW210182   2.781   2.824   4.639 -0.8141  0.1014  0.9260
    1SOL    HW310183   2.694   2.930   4.574 -1.3394 -0.8295  0.1057
    1SOL    MW410184   2.736   2.854   4.571 -0.1225 -0.1769  0.3443
    1SOL     OW10185   2.424   3.140   4.036  0.3736 -0.1922 -0.5313
    1SOL    HW210186   2.399   3.219   4.083  0.4529 -0.5299  0.0873
    1SOL    HW310187   2.347   3.083   4.040  0.8332 -0.7605  0.3603
    1SOL    MW410188   2.411   3.143   4.042  0.4449 -0.3119 -0.3324
    1SOL     OW10189   2.262   3.471   4.104  0.0943 -0.5697  0.1567
    1SOL    HW210190   2.190   3.515   4.149  0.2732  1.2717 -1.3162
    1SOL    HW310191   2.341   3.512   4.140  0.2871 -0.1417 -0.7609
    1SOL    MW410192   2.263   3.482   4.115  0.1435 -0.2704 -0.1588
    1SOL     OW10193   2.473   3.591   4.240  0.3602  0.3029  0.3071
    1SOL    HW210194   2.494   3.590   4.334  1.1658  0.1189  0.1280
    1SOL    HW310195   2.452   3.682   4.221  0.2221  0.3457  0.6604
    1SOL    MW410196   2.473   3.603   4.250  0.4482  0.2844  0.3295
    1SOL     OW10197   2.443   3.867   4.166 -0.0133 -0.0355 -0.7540
    1SOL    HW210198   2.502   3.937   4.195 -1.8266  1.5774 -0.8967
    1SOL    HW310199   2.443   3.873   4.071  0.0676 -0.4257 -0.7779
    1SOL    MW410200   2.451   3.877   4.157 -0.2418  0.1259 -0.7758
    1SOL     OW10201   2.244   4.012   4.280  0.4603 -0.2646 -0.4531
    1SOL    HW210202   2.313   3.956   4.244  1.3371  0.8949 -0.5922
    1SOL    HW310203   2.167   3.992   4.228  0.6066 -1.7637 -0.1319
    1SOL    MW410204   2.243   4.002   4.269  0.5951 -0.3090 -0.4287
    1SOL     OW10205   2.239   4.255   4.150  0.5073 -0.1169 -0.4375
    1SOL    HW210206   2.243   4.171   4.197  0.0262 -0.0866 -0.3450
    1SOL    HW310207   2.154   4.291   4.173  0.6154  0.2856 -0.6751
    1SOL    MW410208   2.229   4.248   4.159  0.4580 -0.0601 -0.4568
    1SOL     OW10209   2.444   4.406   4.301  0.3831  0.4567 -0.4228
    1SOL    HW210210   2.517   4.356   4.263  0.1162  0.2152 -0.6217
    1SOL    HW310211   2.366   4.357   4.275  0.1983  0.2689  0.4733
    1SOL    MW410212   2.443   4.393   4.292  0.3238  0.4001 -0.3304
    1SOL     OW10213   2.913   4.634   4.128 -0.6860  0.1530  0.3816
    1SOL    HW210214   2.989   4.687   4.152  0.7552 -1.2108 -1.0129
    1SOL    HW310215   2.918   4.558   4.186 -1.9498  0.8635  1.4296
    1SOL    MW410216   2.924   4.631   4.139 -0.6626  0.0668  0.3357
    1SOL     OW10217   2.700   0.123   4.240  0.1498 -0.0732 -0.3439
    1SOL    HW210218   2.691   0.210   4.202  0.6850  0.8588  1.6587
    1SOL    HW310219   2.773   0.083   4.191  1.7050  1.5983  0.5872
    1SOL    MW410220   2.709   0.129   4.228  0.4253  0.2703  0.0434
    1SOL     OW10221   2.665   0.370   4.132  0.1797 -0.4068  0.2820
    1SOL    HW210222   2.606   0.428   4.178 -0.9724 -0.7661 -0.7098
    1SOL    HW310223   2.640   0.377   4.040  1.4676 -0.8050 -0.1179
    1SOL    MW410224   2.654   0.378   4.126  0.1979 -0.5068  0.0987
    1SOL     OW10225   2.899   0.481   4.225 -0.1169 -0.1294  0.2937
    1SOL    HW210226   2.903   0.576   4.228  1.9081 -0.1732 -0.6684
    1SOL    HW310227   2.817   0.462   4.179 -0.4876  1.1374  0.4165
    1SOL    MW410228   2.889   0.491   4.220  0.1011  0.0320  0.1826
    1SOL     OW10229   2.898   0.769   4.207  0.4853  0.2853  0.2986
    1SOL    HW210230   2.981   0.813   4.225 -0.8122  2.3756  1.3849
    1SOL    HW310231   2.891   0.769   4.112  1.0675  1.4136  0.2444
    1SOL    MW410232   2.908   0.775   4.197  0.3910  0.7099  0.4349
    1SOL     OW10233   2.668   0.947   4.307 -0.2713 -0.4875 -0.1013
    1SOL    HW210234   2.738   0.882   4.305 -0.3533 -0.5804  0.0845
    1SOL    HW310235   2.594   0.905   4.264  0.6112  0.5670 -2.7135
    1SOL    MW410236   2.668   0.933   4.301 -0.1657 -0.3607 -0.4215
    1SOL     OW10237   2.711   1.205   4.163  0.0165  0.0222 -0.2147
    1SOL    HW210238   2.708   1.119   4.204  0.5314 -0.3963 -1.0362
    1SOL    HW310239   2.728   1.187   4.071 -0.2738  0.9872 -0.4641
    1SOL    MW410240   2.713   1.191   4.156  0.0463  0.0942 -0.3567
    1SOL     OW10241   2.957   1.286   4.279  0.2475 -0.6127 -0.1862
    1SOL    HW210242   3.028   1.232   4.245  0.0144 -0.8538 -0.2951
    1SOL    HW310243   2.878   1.249   4.239  0.2024  0.5776 -1.2331
    1SOL    MW410244   2.956   1.274   4.269  0.2108 -0.4876 -0.3381
    1SOL     OW10245   3.011   1.547   4.127  0.2248 -0.0527  0.5791
    1SOL    HW210246   3.059   1.615   4.174  1.3332 -0.1022 -0.4565
    1SOL    HW310247   3.004   1.474   4.189  0.3123  0.4556  1.1850
    1SOL    MW410248   3.016   1.546   4.141  0.3824  0.0077  0.5217
    1SOL     OW10249   2.743   1.655   4.181  0.5542 -0.6816  0.0353
    1SOL    HW210250   2.823   1.609   4.154  0.3509 -1.5995  0.9613
    1SOL    HW310251   2.671   1.600   4.150  0.2905 -0.2714 -0.0812
    1SOL    MW410252   2.744   1.642   4.173  0.4928 -0.7485  0.1421
    1SOL     OW10253   2.703   1.935   4.135 -0.4716  0.0334 -0.2046
    1SOL    HW210254   2.721   1.846   4.164  2.1740  0.6550  0.1432
    1SOL    HW310255   2.699   1.929   4.039  0.2286 -0.3686 -0.2094
    1SOL    MW410256   2.705   1.923   4.126 -0.0300  0.0623 -0.1597
    1SOL     OW10257   2.927   2.091   4.203 -0.3691 -0.1000  0.4964
    1SOL    HW210258   2.913   2.175   4.158  0.4431 -0.1723  0.1067
    1SOL    HW310259   2.845   2.043   4.189 -0.2336 -0.0101 -0.6681
    1SOL    MW410260   2.914   2.096   4.195 -0.2441 -0.0978  0.2913
    1SOL     OW10261   2.930   2.335   4.059  0.3298  0.4450  0.3472
    1SOL    HW210262   2.987   2.386   4.116  0.0448  1.5238 -0.3134
    1SOL    HW310263   2.841   2.361   4.084  0.1868  0.3582 -0.0608
    1SOL    MW410264   2.926   2.345   4.070  0.2735  0.5760  0.2060
    1SOL     OW10265   2.688   2.420   4.185  0.1318  0.4082  0.0381
    1SOL    HW210266   2.669   2.444   4.276  0.5266 -2.6836  0.9920
    1SOL    HW310267   2.609   2.374   4.156  0.6678 -0.0803 -0.6525
    1SOL    MW410268   2.675   2.417   4.193  0.2546 -0.0644  0.0734
    1SOL     OW10269   2.724   2.689   4.129 -0.4602 -0.3421 -0.4508
    1SOL    HW210270   2.725   2.594   4.147 -1.1382 -0.3000 -0.1701
    1SOL    HW310271   2.637   2.717   4.157  0.2579  0.6321  0.8530
    1SOL    MW410272   2.713   2.680   4.135 -0.4549 -0.2081 -0.2422
    1SOL     OW10273   2.951   2.872   4.178  0.4549  0.4904 -0.2907
    1SOL    HW210274   2.977   2.884   4.269  1.2120  0.0289 -0.4433
    1SOL    HW310275   2.869   2.822   4.182  0.9097 -0.2260  0.1119
    1SOL    MW410276   2.944   2.867   4.190  0.6146  0.3350 -0.2575
    1SOL     OW10277   2.845   3.105   4.062  0.0713 -0.4223  0.4806
    1SOL    HW210278   2.882   3.022   4.092  1.1036  0.0911  0.6254
    1SOL    HW310279   2.867   3.109   3.969 -1.4744 -1.1112  0.0676
    1SOL    MW410280   2.852   3.095   4.054  0.0036 -0.4456  0.4454
    1SOL     OW10281   2.728   3.252   4.272  0.1127 -0.2059  0.3839
    1SOL    HW210282   2.751   3.184   4.209 -1.3627  0.2414 -0.6760
    1SOL    HW310283   2.634   3.238   4.289  0.0402  0.9055  0.9660
    1SOL    MW410284   2.718   3.241   4.266 -0.0918  0.0000  0.3209
    1SOL     OW10285   2.700   3.484   4.121  0.2795 -0.0120 -0.2871
    1SOL    HW210286   2.698   3.403   4.173 -0.6354 -0.1410 -0.5315
    1SOL    HW310287   2.628   3.536   4.155  1.3110  1.0192  0.3636
    1SOL    MW410288   2.690   3.480   4.133  0.2949  0.1070 -0.2337
    1SOL     OW10289   2.898   3.652   4.219  0.2397  0.2099 -0.3579
    1SOL    HW210290   2.897   3.630   4.312 -0.6609 -0.5186 -0.5331
    1SOL    HW310291   2.840   3.588   4.179 -0.0286  1.0471 -1.3094
    1SOL    MW410292   2.890   3.641   4.226  0.0854  0.2244 -0.5069
    1SOL     OW10293   2.865   3.904   4.108  0.8154  0.1666  0.7785
    1SOL    HW210294   2.944   3.932   4.154  1.6883 -2.1564  0.7789
    1SOL    HW310295   2.863   3.809   4.120 -0.6409 -0.1041 -1.3041
    1SOL    MW410296   2.875   3.895   4.115  0.7384 -0.1757  0.5040
    1SOL     OW10297   2.666   4.032   4.247  0.4087 -0.6404 -0.0216
    1SOL    HW210298   2.671   4.123   4.217 -0.9786 -0.6413 -0.2644
    1SOL    HW310299   2.737   3.988   4.200 -0.0874 -0.0793 -1.3228
    1SOL    MW410300   2.676   4.038   4.237  0.1605 -0.5660 -0.2255
    1SOL     OW10301   2.658   4.288   4.152 -0.0713 -0.0674 -0.5497
    1SOL    HW210302   2.740   4.319   4.190 -0.2196 -0.1032 -0.1943
    1SOL    HW310303   2.674   4.287   4.058 -0.7690  3.2405 -0.7942
    1SOL    MW410304   2.671   4.292   4.145 -0.1829  0.3643 -0.5355
    1SOL     OW10305   2.922   4.365   4.245  0.3592 -0.2194  0.0503
    1SOL    HW210306   2.946   4.361   4.338 -0.2628  0.1667  0.2259
    1SOL    HW310307   2.994   4.320   4.201  0.8129 -0.1419  0.6904
    1SOL    MW410308   2.935   4.359   4.252  0.3371 -0.1583  0.1578
    1SOL     OW10309   3.344   4.667   4.126 -0.1687 -0.5561 -0.1787
    1SOL    HW210310   3.415   4.709   4.174  0.3404 -0.2326 -1.2060
    1SOL    HW310311   3.331   4.583   4.171  0.2105 -0.1971  0.6040
    1SOL    MW410312   3.352   4.661   4.138 -0.0515 -0.4663 -0.2108
    1SOL     OW10313   3.110   0.133   4.202 -0.2048 -0.3571  0.1044
    1SOL    HW210314   3.090   0.118   4.295  0.8929  1.3725  0.6444
    1SOL    HW310315   3.192   0.084   4.188  0.1591  0.1978  0.3010
    1SOL    MW410316   3.118   0.124   4.213 -0.0124 -0.0557  0.2012
    1SOL     OW10317   3.127   0.398   4.089  0.1656  0.1434  0.2668
    1SOL    HW210318   3.139   0.310   4.125  0.6344 -0.1564 -0.6015
    1SOL    HW310319   3.043   0.427   4.124  0.3373 -0.3739  1.1196
    1SOL    MW410320   3.117   0.390   4.098  0.2501  0.0356  0.2646
    1SOL     OW10321   3.309   0.498   4.282 -0.2927 -0.0689  0.4017
    1SOL    HW210322   3.388   0.449   4.261  0.0097  0.1973  0.9187
    1SOL    HW310323   3.239   0.454   4.233  0.0320 -0.8107  0.6164
    1SOL    MW410324   3.310   0.486   4.273 -0.2100 -0.1316  0.4988
    1SOL     OW10325   3.335   0.761   4.191  0.1370  0.2942  0.3167
    1SOL    HW210326   3.246   0.797   4.197  0.1428  0.3994 -0.2417
    1SOL    HW310327   3.326   0.670   4.219 -0.4378 -0.1558 -1.2684
    1SOL    MW410328   3.322   0.754   4.196  0.0618  0.2487  0.0343
    1SOL     OW10329   3.123   0.933   4.240 -0.1511 -0.2521  0.2814
    1SOL    HW210330   3.111   0.935   4.335  2.6180 -1.4972  0.7289
    1SOL    HW310331   3.143   1.023   4.216  0.2235 -0.1242  1.0571
    1SOL    MW410332   3.124   0.945   4.250  0.2637 -0.3995  0.4430
    1SOL     OW10333   3.193   1.207   4.150  0.1012  0.1314  0.1184
    1SOL    HW210334   3.268   1.239   4.199  0.1242 -0.7707  0.6769
    1SOL    HW310335   3.225   1.200   4.060  0.7770 -0.5236  0.4022
    1SOL    MW410336   3.207   1.210   4.144  0.1936 -0.0741  0.2294
    1SOL     OW10337   3.392   1.350   4.286  0.3388  0.0331  0.6831
    1SOL    HW210338   3.369   1.357   4.379  1.9981  0.0513  1.1015
    1SOL    HW310339   3.387   1.439   4.253 -0.7969 -0.0508  0.6226
    1SOL    MW410340   3.388   1.362   4.294  0.4079  0.0244  0.7305
    1SOL     OW10341   3.387   1.619   4.180 -0.5844 -0.5057 -0.1888
    1SOL    HW210342   3.315   1.667   4.220  0.3359  0.8077 -0.0790
    1SOL    HW310343   3.360   1.607   4.089 -0.5567  0.7950 -0.3838
    1SOL    MW410344   3.374   1.624   4.173 -0.4594 -0.1608 -0.2003
    1SOL     OW10345   3.142   1.730   4.311  1.0811  0.3996 -0.1024
    1SOL    HW210346   3.080   1.749   4.381  1.6163  0.9689  0.2131
    1SOL    HW310347   3.140   1.807   4.255  3.9150  1.8412  1.6598
    1SOL    MW410348   3.134   1.742   4.313  1.5256  0.6648  0.1717
    1SOL     OW10349   3.130   1.944   4.106 -0.3738  0.2815 -0.4596
    1SOL    HW210350   3.213   1.982   4.136 -0.7638  0.5916  0.2343
    1SOL    HW310351   3.065   2.012   4.122 -0.6152  0.4233 -1.9539
    1SOL    MW410352   3.132   1.958   4.112 -0.4570  0.3413 -0.5655
    1SOL     OW10353   3.330   2.092   4.215 -0.4897 -0.0605  0.3081
    1SOL    HW210354   3.408   2.041   4.193 -0.0935  0.1001  1.3095
    1SOL    HW310355   3.357   2.183   4.202 -0.6906 -0.0320  0.0923
    1SOL    MW410356   3.344   2.098   4.210 -0.4640 -0.0353  0.4115
    1SOL     OW10357   3.355   2.359   4.129 -0.4722 -0.2229 -0.2360
    1SOL    HW210358   3.436   2.407   4.144 -1.2204  0.9227  0.2488
    1SOL    HW310359   3.361   2.329   4.039 -0.1290  1.1165 -0.6765
    1SOL    MW410360   3.366   2.361   4.119 -0.5257  0.1049 -0.2298
    1SOL     OW10361   3.122   2.480   4.230  0.1295 -0.5780  0.5300
    1SOL    HW210362   3.128   2.566   4.187 -1.4779 -1.0889 -0.7559
    1SOL    HW310363   3.201   2.434   4.202  0.1758 -0.1083 -0.1280
    1SOL    MW410364   3.133   2.485   4.221 -0.0763 -0.5834  0.2737
    1SOL     OW10365   3.146   2.710   4.084 -0.4518 -0.0229 -0.3059
    1SOL    HW210366   3.223   2.742   4.131  0.4722  0.0222 -1.7891
    1SOL    HW310367   3.074   2.764   4.115  0.0159 -0.3716  1.4523
    1SOL    MW410368   3.147   2.721   4.094 -0.2682 -0.0629 -0.2694
    1SOL     OW10369   3.363   2.835   4.202 -0.4721 -0.2720 -0.0765
    1SOL    HW210370   3.442   2.815   4.152  0.6071 -0.7769  1.7938
    1SOL    HW310371   3.344   2.926   4.181  1.0206  0.0684  0.0217
    1SOL    MW410372   3.371   2.844   4.192 -0.1330 -0.2937  0.1831
    1SOL     OW10373   3.313   3.099   4.147 -0.4682  0.2608  0.0073
    1SOL    HW210374   3.228   3.142   4.152 -0.0021  1.1048  0.6973
    1SOL    HW310375   3.340   3.112   4.056 -1.5354 -0.9063 -0.4848
    1SOL    MW410376   3.305   3.106   4.135 -0.5476  0.2182  0.0329
    1SOL     OW10377   3.070   3.228   4.222 -0.4258  0.1235 -0.1319
    1SOL    HW210378   3.087   3.309   4.174  0.4235 -0.8528 -1.5502
    1SOL    HW310379   3.010   3.180   4.166  0.9734 -1.2571 -0.5017
    1SOL    MW410380   3.065   3.232   4.208 -0.1290 -0.1876 -0.3686
    1SOL     OW10381   3.115   3.488   4.113 -0.4209 -0.7254 -0.4511
    1SOL    HW210382   3.045   3.551   4.131 -0.0963 -0.2608 -0.7997
    1SOL    HW310383   3.123   3.488   4.017  1.1090  0.3715 -0.3298
    1SOL    MW410384   3.107   3.496   4.103 -0.1764 -0.5195 -0.4807
    1SOL     OW10385   3.350   3.599   4.177  0.0320 -0.2718  0.6258
    1SOL    HW210386   3.348   3.577   4.270 -2.3068  2.2053  1.2464
    1SOL    HW310387   3.269   3.562   4.141  0.2264 -0.0115 -0.1061
    1SOL    MW410388   3.339   3.591   4.184 -0.2508  0.0894  0.6113
    1SOL     OW10389   3.324   3.892   4.099 -0.3363  0.7746  0.6491
    1SOL    HW210390   3.331   3.798   4.116 -1.9350  0.5167 -0.0498
    1SOL    HW310391   3.330   3.900   4.004 -1.3835  1.2503  0.6101
    1SOL    MW410392   3.325   3.880   4.089 -0.6855  0.8032  0.5517
    1SOL     OW10393   3.081   3.991   4.245 -0.0594 -0.1694 -0.6954
    1SOL    HW210394   3.067   3.949   4.330 -0.6621  0.4673 -0.4742
    1SOL    HW310395   3.165   3.956   4.215 -0.2875 -1.1132 -0.2713
    1SOL    MW410396   3.090   3.981   4.252 -0.1690 -0.2100 -0.6104
    1SOL     OW10397   3.142   4.243   4.130 -0.2577  0.3743 -0.6527
    1SOL    HW210398   3.209   4.292   4.177 -0.8569  1.4105 -0.8609
    1SOL    HW310399   3.126   4.165   4.184 -0.0361  0.9215  0.2113
    1SOL    MW410400   3.148   4.239   4.143 -0.3076  0.5832 -0.5660
    1SOL     OW10401   3.327   4.409   4.237  0.0762 -0.1487 -0.3027
    1SOL    HW210402   3.342   4.412   4.332  0.6961 -1.8537 -0.3383
    1SOL    HW310403   3.403   4.363   4.202  0.5019  1.6330 -1.7885
    1SOL    MW410404   3.339   4.404   4.245  0.2141 -0.1383 -0.5035
    1SOL     OW10405   3.762   0.020   4.149  0.1525  0.0107 -0.4126
    1SOL    HW210406   3.836   0.061   4.193  0.2535 -1.3498  0.6970
    1SOL    HW310407   3.781   0.029   4.056  2.2168 -1.2368 -0.1310
    1SOL    MW410408   3.774   0.027   4.143  0.4382 -0.3333 -0.2294
    1SOL     OW10409   3.535   0.101   4.282 -0.0621 -0.1310  0.3555
    1SOL    HW210410   3.523   0.191   4.253  2.1097  0.4193  1.1311
    1SOL    HW310411   3.611   0.069   4.234  0.2489 -0.9819  1.3769
    1SOL    MW410412   3.543   0.108   4.272  0.2656 -0.1707  0.5922
    1SOL     OW10413   3.540   0.384   4.211  0.1492 -0.5090  0.5406
    1SOL    HW210414   3.614   0.434   4.247 -0.8010  0.1587  1.6056
    1SOL    HW310415   3.552   0.389   4.116  1.4798 -0.4140  0.6998
    1SOL    MW410416   3.551   0.392   4.203  0.1996 -0.4084  0.7019
    1SOL     OW10417   3.796   0.503   4.289 -0.4547 -0.4024 -0.2609
    1SOL    HW210418   3.792   0.507   4.384 -0.8995  0.5753 -0.3155
    1SOL    HW310419   3.779   0.593   4.260  1.6982 -0.2647 -1.1978
    1SOL    MW410420   3.793   0.515   4.297 -0.2294 -0.2552 -0.3920
    1SOL     OW10421   3.770   0.753   4.182  0.5384  0.1073  0.2524
    1SOL    HW210422   3.697   0.806   4.214  1.0563  0.6063  0.6211
    1SOL    HW310423   3.775   0.773   4.089  0.8397  0.8473  0.4198
    1SOL    MW410424   3.761   0.763   4.174  0.6464  0.2708  0.3228
    1SOL     OW10425   3.568   0.942   4.279 -0.1846 -0.2375  0.1348
    1SOL    HW210426   3.575   1.035   4.259 -1.3525 -0.2633 -0.4072
    1SOL    HW310427   3.491   0.912   4.231 -1.8840 -0.7125  3.0609
    1SOL    MW410428   3.559   0.950   4.270 -0.5629 -0.3036  0.4497
    1SOL     OW10429   3.600   1.202   4.182  0.2253  0.1162  0.0144
    1SOL    HW210430   3.528   1.248   4.225  0.9876  0.5693  0.8236
    1SOL    HW310431   3.578   1.205   4.089  0.9515  3.3991 -0.1161
    1SOL    MW410432   3.588   1.208   4.175  0.4220  0.6090  0.1040
    1SOL     OW10433   3.853   1.288   4.285 -0.1107  0.4129 -0.4596
    1SOL    HW210434   3.768   1.254   4.258  0.2069 -1.1024  0.3328
    1SOL    HW310435   3.854   1.379   4.256 -1.8757  0.3564 -0.7387
    1SOL    MW410436   3.842   1.295   4.278 -0.3016  0.2055 -0.3915
    1SOL     OW10437   3.846   1.574   4.233  0.1258 -0.0968  0.0908
    1SOL    HW210438   3.925   1.621   4.258  0.6804 -0.6334 -0.6638
    1SOL    HW310439   3.777   1.640   4.238  0.4949  0.2107  1.4102
    1SOL    MW410440   3.847   1.589   4.237  0.2477 -0.1270  0.1655
    1SOL     OW10441   3.632   1.741   4.281 -0.7381 -0.1422  0.6045
    1SOL    HW210442   3.547   1.698   4.279  0.3139 -2.3546  2.1472
    1SOL    HW310443   3.634   1.787   4.365 -0.2397 -0.4136  0.7412
    1SOL    MW410444   3.621   1.742   4.291 -0.5336 -0.4700  0.8259
    1SOL     OW10445   3.597   1.996   4.126 -0.0394  0.3535  0.3378
    1SOL    HW210446   3.630   1.908   4.143  0.2374  0.2664 -0.6379
    1SOL    HW310447   3.588   2.001   4.031  0.3967  1.5364  0.3484
    1SOL    MW410448   3.600   1.985   4.116  0.0546  0.4982  0.2108
    1SOL     OW10449   3.702   2.155   4.345 -0.4251  0.2657 -0.0393
    1SOL    HW210450   3.793   2.125   4.343 -0.4307  0.2785 -0.5898
    1SOL    HW310451   3.657   2.100   4.281 -0.7346  0.4843 -0.0128
    1SOL    MW410452   3.708   2.144   4.336 -0.4666  0.2959 -0.1087
    1SOL     OW10453   3.802   2.339   4.173  0.6767  0.8182 -0.0667
    1SOL    HW210454   3.746   2.277   4.220 -0.7597  1.1270 -1.2974
    1SOL    HW310455   3.812   2.300   4.086  0.1643  2.0609 -0.6940
    1SOL    MW410456   3.796   2.326   4.168  0.4196  1.0228 -0.3119
    1SOL     OW10457   3.588   2.523   4.223  0.2259  0.0388 -0.1747
    1SOL    HW210458   3.572   2.519   4.317  0.6156  1.1935 -0.0420
    1SOL    HW310459   3.676   2.486   4.212  0.0289 -0.4449 -0.1354
    1SOL    MW410460   3.598   2.518   4.234  0.2515  0.1276 -0.1526
    1SOL     OW10461   3.598   2.767   4.077 -0.1019  0.0449 -0.1965
    1SOL    HW210462   3.601   2.678   4.111 -1.6277 -0.0656 -0.2988
    1SOL    HW310463   3.615   2.757   3.983  0.3490 -0.0679 -0.1026
    1SOL    MW410464   3.601   2.754   4.069 -0.2439  0.0155 -0.1974
    1SOL     OW10465   3.823   2.891   4.187 -0.0676  0.0108  0.1898
    1SOL    HW210466   3.824   2.878   4.282  0.7727  0.3201  0.2325
    1SOL    HW310467   3.749   2.839   4.156 -0.5993  0.2516  1.0600
    1SOL    MW410468   3.814   2.882   4.195 -0.0269  0.0832  0.3104
    1SOL     OW10469   3.799   3.136   4.098  0.0325 -0.2644 -0.0832
    1SOL    HW210470   3.806   3.052   4.142  1.3144 -0.2804 -0.3068
    1SOL    HW310471   3.806   3.115   4.005 -0.5810 -0.0094 -0.1883
    1SOL    MW410472   3.801   3.122   4.092  0.1206 -0.2329 -0.1264
    1SOL     OW10473   3.561   3.194   4.253  0.1018 -0.5898  0.1130
    1SOL    HW210474   3.632   3.177   4.191 -0.8112 -2.4468 -0.4400
    1SOL    HW310475   3.482   3.163   4.209 -0.6174 -1.5518  2.0412
    1SOL    MW410476   3.560   3.188   4.239 -0.1135 -0.9615  0.2937
    1SOL     OW10477   3.575   3.448   4.086 -0.2318  0.2252  0.3696
    1SOL    HW210478   3.567   3.357   4.117 -2.2710  0.1904 -0.1770
    1SOL    HW310479   3.493   3.489   4.113  0.6925  1.9374  0.6477
    1SOL    MW410480   3.563   3.442   4.094 -0.3788  0.4466  0.3338
    1SOL     OW10481   3.794   3.609   4.179 -0.3345  0.3472 -0.1267
    1SOL    HW210482   3.872   3.568   4.141 -0.2836  1.9738 -1.8158
    1SOL    HW310483   3.722   3.550   4.158  0.1966 -0.3983  0.1256
    1SOL    MW410484   3.795   3.596   4.171 -0.2577  0.4632 -0.3161
    1SOL     OW10485   3.840   3.897   4.113  0.3897  0.4712  0.5645
    1SOL    HW210486   3.754   3.935   4.129 -0.4938 -1.7231  1.2235
    1SOL    HW310487   3.833   3.807   4.146  2.0911 -0.6088 -1.8599
    1SOL    MW410488   3.828   3.890   4.120  0.4981  0.0393  0.3314
    1SOL     OW10489   3.584   3.996   4.204  0.3184 -0.5998  0.0975
    1SOL    HW210490   3.583   4.011   4.298 -0.2820 -0.4859  0.0699
    1SOL    HW310491   3.498   3.959   4.184  0.1562  0.1078 -0.5267
    1SOL    MW410492   3.573   3.993   4.213  0.2177 -0.4914  0.0114
    1SOL     OW10493   3.561   4.272   4.155 -0.4271 -0.5385 -0.4149
    1SOL    HW210494   3.649   4.300   4.179 -0.2996 -0.8110 -0.5625
    1SOL    HW310495   3.556   4.181   4.187 -0.1005 -1.0596 -1.8307
    1SOL    MW410496   3.572   4.263   4.163 -0.3672 -0.6433 -0.6213
    1SOL     OW10497   3.809   4.393   4.228 -0.6916  0.1025 -0.2144
    1SOL    HW210498   3.885   4.351   4.187  0.4359  1.6525  0.2306
    1SOL    HW310499   3.798   4.475   4.180 -0.1925  1.3123  1.6718
    1SOL    MW410500   3.818   4.398   4.216 -0.4771  0.4668  0.0935
    1SOL     OW10501   4.220   0.030   4.162  0.1458 -0.3708  0.1285
    1SOL    HW210502   4.231  -0.059   4.195 -0.6214 -0.2590  0.7217
    1SOL    HW310503   4.293   0.079   4.201  1.0883 -0.9147 -0.9152
    1SOL    MW410504   4.231   0.025   4.172  0.1688 -0.4277  0.0691
    1SOL     OW10505   3.992   0.175   4.282  0.0592  0.1927 -0.2399
    1SOL    HW210506   4.008   0.262   4.245  1.8749  0.1240  0.3382
    1SOL    HW310507   4.070   0.124   4.260  0.0808 -0.5842  1.5109
    1SOL    MW410508   4.004   0.180   4.274  0.3014  0.0812  0.0677
    1SOL     OW10509   4.023   0.421   4.145 -0.1192  0.6979  0.2888
    1SOL    HW210510   4.100   0.460   4.186  0.1591 -0.6841  1.1451
    1SOL    HW310511   3.949   0.461   4.191  0.1242  1.1024  0.3320
    1SOL    MW410512   4.023   0.431   4.157 -0.0501  0.5689  0.4077
    1SOL     OW10513   4.256   0.529   4.233 -0.2332 -0.2635 -0.1548
    1SOL    HW210514   4.281   0.620   4.217 -0.1627  0.0548  1.6391
    1SOL    HW310515   4.326   0.478   4.192  0.9506  0.5480  0.7901
    1SOL    MW410516   4.269   0.534   4.225 -0.0687 -0.1144  0.2065
    1SOL     OW10517   4.338   0.786   4.164 -0.8104  0.2372 -0.2261
    1SOL    HW210518   4.267   0.836   4.205 -0.5770  1.4995 -1.3194
    1SOL    HW310519   4.313   0.780   4.072 -0.0009 -0.2141 -0.4230
    1SOL    MW410520   4.325   0.792   4.157 -0.6728  0.3442 -0.3963
    1SOL     OW10521   4.069   0.921   4.218  0.4482  0.1757 -0.5031
    1SOL    HW210522   4.041   1.006   4.183  0.1865  0.7656  1.0532
    1SOL    HW310523   3.991   0.867   4.214  0.9211 -0.3809 -2.6013
    1SOL    MW410524   4.055   0.925   4.213  0.4759  0.1801 -0.5746
    1SOL     OW10525   4.050   1.186   4.138  0.0035  0.2919 -0.5148
    1SOL    HW210526   4.130   1.217   4.179  0.1589  0.4146 -0.9020
    1SOL    HW310527   3.979   1.221   4.191  0.1642  1.5370 -1.0923
    1SOL    MW410528   4.052   1.195   4.150  0.0453  0.4723 -0.6423
    1SOL     OW10529   4.286   1.271   4.266  0.1101 -0.3595 -0.0460
    1SOL    HW210530   4.308   1.273   4.359  0.2228 -0.8590 -0.0617
    1SOL    HW310531   4.360   1.228   4.224 -0.3017 -0.8637 -0.2630
    1SOL    MW410532   4.299   1.266   4.273  0.0706 -0.4919 -0.0768
    1SOL     OW10533   4.312   1.519   4.152 -0.3559 -0.0535 -0.1081
    1SOL    HW210534   4.298   1.430   4.185 -0.3180 -0.2705 -0.6743
    1SOL    HW310535   4.305   1.510   4.057  0.5412  0.3938 -0.2144
    1SOL    MW410536   4.309   1.506   4.143 -0.2332 -0.0230 -0.1969
    1SOL     OW10537   4.105   1.709   4.289  0.3546 -0.1708 -0.0912
    1SOL    HW210538   4.143   1.681   4.372  1.8195  0.0867 -0.6646
    1SOL    HW310539   4.169   1.683   4.223 -1.1555 -1.1038 -1.2388
    1SOL    MW410540   4.118   1.702   4.291  0.3486 -0.2600 -0.3185
    1SOL     OW10541   3.953   1.929   4.092 -0.2593  0.3282 -0.3393
    1SOL    HW210542   3.990   1.867   4.155 -1.1317 -0.0271 -0.1666
    1SOL    HW310543   3.931   2.006   4.144 -2.3413 -0.5121  0.0910
    1SOL    MW410544   3.955   1.931   4.107 -0.6490  0.1705 -0.2599
    1SOL     OW10545   4.481   1.922   4.152 -0.8917 -0.5123 -0.0104
    1SOL    HW210546   4.554   1.966   4.195  0.5157 -2.9448  0.1843
    1SOL    HW310547   4.405   1.975   4.175  0.7362  1.9442 -0.0034
    1SOL    MW410548   4.481   1.935   4.161 -0.4907 -0.5091  0.0162
    1SOL     OW10549   4.245   2.365   4.164 -0.0646 -0.4282 -0.3610
    1SOL    HW210550   4.158   2.403   4.179  0.5571  0.4910  1.0959
    1SOL    HW310551   4.237   2.275   4.194 -0.5905 -0.4348 -0.5058
    1SOL    MW410552   4.232   2.358   4.170 -0.0515 -0.3078 -0.1874
    1SOL     OW10553   4.021   2.508   4.247 -0.4514  0.1289 -0.1318
    1SOL    HW210554   4.018   2.506   4.343 -0.5823  0.3572 -0.1324
    1SOL    HW310555   3.944   2.458   4.220 -0.6246  0.3869 -0.1182
    1SOL    MW410556   4.010   2.501   4.256 -0.4916  0.1929 -0.1307
    1SOL     OW10557   4.079   2.753   4.141 -0.2375 -0.0763  0.5686
    1SOL    HW210558   4.065   2.669   4.184 -0.8269 -0.8892 -1.1691
    1SOL    HW310559   3.998   2.802   4.155 -0.7203 -0.6345 -0.2747
    1SOL    MW410560   4.066   2.749   4.148 -0.3791 -0.2570  0.2284
    1SOL     OW10561   4.287   2.881   4.267  0.2117  0.1232  0.3590
    1SOL    HW210562   4.209   2.844   4.226  1.7322 -0.3072 -2.2886
    1SOL    HW310563   4.360   2.842   4.219  1.9581  3.9244 -0.2905
    1SOL    MW410564   4.287   2.871   4.255  0.6423  0.5682 -0.0768
    1SOL     OW10565   4.280   3.151   4.191 -0.2893  0.0797 -0.0620
    1SOL    HW210566   4.262   3.062   4.221 -0.9120 -0.4308 -1.8638
    1SOL    HW310567   4.292   3.143   4.096 -0.7299  1.9611 -0.3122
    1SOL    MW410568   4.279   3.139   4.182 -0.4296  0.2608 -0.3328
    1SOL     OW10569   4.010   3.264   4.238  0.6938  0.3188 -0.0403
    1SOL    HW210570   4.086   3.223   4.197 -0.4521  0.0549 -1.9739
    1SOL    HW310571   3.935   3.221   4.197 -0.5117  1.3504  1.0412
    1SOL    MW410572   4.010   3.253   4.228  0.3839  0.4201 -0.1531
    1SOL     OW10573   4.050   3.508   4.112  0.4909 -0.2290  0.1335
    1SOL    HW210574   4.025   3.420   4.139  0.3947 -0.2975 -0.1832
    1SOL    HW310575   4.064   3.502   4.018 -1.5761  0.5671 -0.2547
    1SOL    MW410576   4.048   3.496   4.103  0.2060 -0.1330  0.0405
    1SOL     OW10577   4.265   3.623   4.239  0.3574 -0.3869  0.2014
    1SOL    HW210578   4.270   3.716   4.218  0.3867  0.0874  2.2343
    1SOL    HW310579   4.180   3.595   4.206  0.1757  0.4522 -0.0479
    1SOL    MW410580   4.255   3.631   4.232  0.3376 -0.2136  0.4368
    1SOL     OW10581   4.265   3.887   4.170 -0.1351 -0.3282 -0.2383
    1SOL    HW210582   4.191   3.941   4.201 -0.0160 -0.7192  0.7552
    1SOL    HW310583   4.248   3.875   4.077 -1.8486 -1.2086  0.1555
    1SOL    MW410584   4.253   3.893   4.162 -0.3452 -0.4957 -0.0553
    1SOL     OW10585   4.040   4.027   4.268 -0.6881  0.1122 -0.1827
    1SOL    HW210586   4.031   4.005   4.360 -2.2873  2.5317  0.2624
    1SOL    HW310587   3.964   3.986   4.226 -1.3230  1.1184 -0.0244
    1SOL    MW410588   4.029   4.018   4.274 -0.9828  0.5641 -0.1030
    1SOL     OW10589   4.047   4.276   4.132 -0.2030  0.1586 -0.0313
    1SOL    HW210590   4.120   4.320   4.176  0.0700 -0.1953 -0.1322
    1SOL    HW310591   4.038   4.193   4.177  0.0217 -0.1695 -0.5780
    1SOL    MW410592   4.055   4.271   4.143 -0.1369  0.0691 -0.1163
    1SOL     OW10593   3.990   4.555   4.539  0.1501 -0.0698  0.0608
    1SOL    HW210594   3.981   4.644   4.572  1.8006  0.2143 -0.2192
    1SOL    HW310595   3.902   4.517   4.548 -0.2117  1.0908  1.5623
    1SOL    MW410596   3.977   4.562   4.544  0.3204  0.1206  0.2217
    1SOL     OW10597   0.122   0.240   4.468  0.0392  0.1944 -0.1638
    1SOL    HW210598   0.157   0.317   4.423  0.4152 -0.3285 -0.7767
    1SOL    HW310599   0.077   0.275   4.544  0.8764  0.9663 -0.0208
    1SOL    MW410600   0.121   0.255   4.472  0.1993  0.2272 -0.2260
    1SOL     OW10601   4.214   4.377   4.538  0.3268 -0.4729 -0.7103
    1SOL    HW210602   4.173   4.292   4.554  1.5055 -1.1197 -1.0268
    1SOL    HW310603   4.148   4.441   4.562 -0.4489 -1.4830 -0.1239
    1SOL    MW410604   4.200   4.374   4.543  0.3796 -0.6914 -0.6752
    1SOL     OW10605   3.903   0.162   4.569 -0.2011 -0.2191 -0.1644
    1SOL    HW210606   3.928   0.176   4.477 -0.7606 -0.6919 -0.3951
    1SOL    HW310607   3.810   0.141   4.565 -0.5079  0.9640  0.6347
    1SOL    MW410608   3.894   0.161   4.556 -0.3154 -0.1253 -0.0896
    1SOL     OW10609   3.983   1.099   4.716  0.4292  0.5478  0.1715
    1SOL    HW210610   3.974   1.040   4.642  0.0867  0.8204 -0.0046
    1SOL    HW310611   3.961   1.186   4.681 -1.2995  0.4484  0.9576
    1SOL    MW410612   3.979   1.103   4.702  0.1557  0.5707  0.2513
    1SOL     OW10613   0.306   0.019   4.544 -0.1714  0.1010 -0.1175
    1SOL    HW210614   0.231   0.079   4.548 -1.2415 -1.1988 -0.0844
    1SOL    HW310615   0.266  -0.068   4.537  1.3523 -0.5206 -1.5143
    1SOL    MW410616   0.291   0.016   4.543 -0.1115 -0.1525 -0.2975
    1SOL     OW10617   0.519   1.167   4.650 -0.0656 -0.0836  0.2378
    1SOL    HW210618   0.427   1.188   4.634  0.0302 -0.5643 -1.0190
    1SOL    HW310619   0.533   1.085   4.602  0.7341 -0.6026  1.3309
    1SOL    MW410620   0.509   1.159   4.641  0.0525 -0.2154  0.2165
    1SOL     OW10621   4.285   0.813   4.569 -0.1870 -0.4095 -0.1852
    1SOL    HW210622   4.261   0.721   4.585  0.6744 -0.8041 -1.0964
    1SOL    HW310623   4.380   0.815   4.580 -0.1690  0.3199 -0.4608
    1SOL    MW410624   4.294   0.801   4.573 -0.0706 -0.3654 -0.3414
    1SOL     OW10625   0.182   1.303   4.524  0.2152 -0.1524 -0.1780
    1SOL    HW210626   0.170   1.250   4.603  1.4877  0.8145  0.6890
    1SOL    HW310627   0.203   1.390   4.557 -1.0359  0.7090 -1.5895
    1SOL    MW410628   0.183   1.308   4.539  0.2180  0.0889 -0.2499
    1SOL     OW10629   0.634   2.058   4.710  0.2866  0.0320 -0.3347
    1SOL    HW210630   0.693   2.007   4.655 -0.7420 -0.6747 -0.7993
    1SOL    HW310631   0.682   2.071   4.792  0.1629 -2.6732  0.2354
    1SOL    MW410632   0.648   2.053   4.714  0.1345 -0.4179 -0.3209
    1SOL     OW10633   4.277   1.083   4.693  0.1187 -0.3157  0.2236
    1SOL    HW210634   4.292   1.001   4.647 -0.6022 -0.3060 -0.0434
    1SOL    HW310635   4.185   1.078   4.720  0.1808  0.2377  0.5331
    1SOL    MW410636   4.267   1.072   4.690  0.0319 -0.2412  0.2294
    1SOL     OW10637   0.198   1.997   4.502 -0.7935 -0.2206 -0.5519
    1SOL    HW210638   0.150   1.920   4.534 -0.1610 -0.1559  0.5811
    1SOL    HW310639   0.146   2.072   4.533 -0.2476 -0.1582  0.2058
    1SOL    MW410640   0.185   1.997   4.510 -0.6380 -0.2038 -0.3023
    1SOL     OW10641   0.484   1.698   4.216 -0.0037  0.1396  0.3036
    1SOL    HW210642   0.403   1.648   4.205 -0.3307  0.5995  0.6388
    1SOL    HW310643   0.554   1.635   4.196 -0.3783 -0.6769  1.5386
    1SOL    MW410644   0.483   1.683   4.212 -0.0963  0.0926  0.5102
    1SOL     OW10645   0.058   2.216   4.593 -0.0970  0.1502  0.4164
    1SOL    HW210646   0.065   2.215   4.689  1.2789 -0.1139  0.3262
    1SOL    HW310647   0.077   2.307   4.569  1.7856 -0.2641  0.2616
    1SOL    MW410648   0.062   2.228   4.603  0.3329  0.0606  0.3843
    1SOL     OW10649   4.039   2.408   4.780 -0.2388  0.3279  0.6426
    1SOL    HW210650   3.948   2.438   4.781 -0.2451  0.4037 -1.1622
    1SOL    HW310651   4.035   2.322   4.823 -1.6340 -0.8759 -1.7748
    1SOL    MW410652   4.026   2.400   4.786 -0.4239  0.1793  0.0863
    1SOL     OW10653   0.367   2.797   4.528 -0.0452  0.5852  0.4277
    1SOL    HW210654   0.316   2.833   4.456 -0.8804 -0.2124  0.6127
    1SOL    HW310655   0.350   2.703   4.525  1.5926  0.2762  0.3554
    1SOL    MW410656   0.358   2.789   4.518  0.0607  0.4392  0.4430
    1SOL     OW10657   0.401   2.992   4.739  0.0615 -0.4307  0.6241
    1SOL    HW210658   0.388   2.924   4.673  1.7299 -0.9596  0.8014
    1SOL    HW310659   0.496   3.001   4.745 -0.1327  3.2291 -0.6889
    1SOL    MW410660   0.412   2.984   4.731  0.2560 -0.0174  0.4740
    1SOL     OW10661   4.221   2.481   4.580 -0.0531  0.1039 -0.0091
    1SOL    HW210662   4.295   2.529   4.616  0.6741 -0.5244 -0.6650
    1SOL    HW310663   4.167   2.459   4.657  1.0936 -0.5590  0.6139
    1SOL    MW410664   4.223   2.485   4.595  0.1941 -0.0665 -0.0134
    1SOL     OW10665   4.206   3.375   4.619  0.4012  0.0131 -0.2361
    1SOL    HW210666   4.268   3.302   4.626 -0.0435 -0.3550 -0.1125
    1SOL    HW310667   4.123   3.334   4.598 -0.0220  0.4166  0.6151
    1SOL    MW410668   4.203   3.360   4.617  0.2871  0.0179 -0.1082
    1SOL     OW10669   0.000   3.246   4.547 -0.1400  0.6899  0.2089
    1SOL    HW210670   0.012   3.253   4.452 -0.3614 -0.7442  0.0660
    1SOL    HW310671   0.054   3.317   4.582  1.1114  0.3428 -0.9220
    1SOL    MW410672   0.009   3.257   4.539 -0.0048  0.4549  0.0405
    1SOL     OW10673   4.246   3.817   4.661  0.0533  0.0305  0.1143
    1SOL    HW210674   4.162   3.834   4.617  1.1765  1.7786 -1.3843
    1SOL    HW310675   4.292   3.757   4.603  1.0104  1.3132 -0.4475
    1SOL    MW410676   4.241   3.811   4.648  0.3276  0.4303 -0.1578
    1SOL     OW10677   4.453   0.377   4.663  0.3407  0.3383 -0.0550
    1SOL    HW210678   4.417   0.439   4.600 -1.0575 -1.3319 -0.9557
    1SOL    HW310679   4.375   0.342   4.708  1.0491 -1.2653 -0.0535
    1SOL    MW410680   4.438   0.381   4.661  0.2494 -0.0936 -0.1736
    1SOL     OW10681   3.745   0.573   4.559 -0.4449 -0.2078  0.2837
    1SOL    HW210682   3.712   0.549   4.645  1.2218  0.1608  1.0461
    1SOL    HW310683   3.711   0.661   4.544 -0.7325 -0.2717  0.5556
    1SOL    MW410684   3.736   0.581   4.568 -0.2630 -0.1676  0.4201
    1SOL     OW10685   3.843   3.553   4.834 -0.3952  0.0083 -0.2322
    1SOL    HW210686   3.938   3.550   4.821 -0.3148  1.6417 -0.0722
    1SOL    HW310687   3.832   3.532   4.927 -0.0682  1.5735  0.1643
    1SOL    MW410688   3.854   3.550   4.845 -0.3414  0.4303 -0.1593
    1SOL     OW10689   3.850   4.276   4.678 -0.0700 -0.0741  0.2448
    1SOL    HW210690   3.800   4.351   4.646 -0.3361  0.0667  0.9932
    1SOL    HW310691   3.784   4.210   4.698  0.1886 -0.6715 -0.8118
    1SOL    MW410692   3.834   4.277   4.677 -0.0706 -0.1340  0.2036
    1SOL     OW10693   0.591   0.075   4.620  0.0104  0.0485 -0.0997
    1SOL    HW210694   0.507   0.032   4.612  0.7705 -1.6412  0.7097
    1SOL    HW310695   0.581   0.134   4.694 -0.3360 -0.4866  0.2851
    1SOL    MW410696   0.579   0.077   4.629  0.0651 -0.2450  0.0577
    1SOL     OW10697   0.071   0.834   4.618 -0.1876 -0.3982  0.2234
    1SOL    HW210698   0.084   0.869   4.529 -0.9032 -0.0388  0.2590
    1SOL    HW310699   0.116   0.750   4.617  1.8670  0.6571  0.2404
    1SOL    MW410700   0.079   0.828   4.606 -0.0109 -0.2116  0.2303
    1SOL     OW10701   1.366   0.950   4.509  0.1227  0.2879 -0.5503
    1SOL    HW210702   1.284   0.933   4.556  0.3181 -0.6451 -0.5313
    1SOL    HW310703   1.348   0.923   4.419  0.5386 -0.2931 -0.4565
    1SOL    MW410704   1.352   0.944   4.503  0.2034  0.0882 -0.5350
    1SOL     OW10705   0.759   0.243   4.488  0.0320  0.2243  0.0404
    1SOL    HW210706   0.692   0.183   4.519  0.0826  0.0720 -0.1396
    1SOL    HW310707   0.790   0.204   4.406  0.0574  0.5032 -0.0831
    1SOL    MW410708   0.755   0.230   4.481  0.0420  0.2410  0.0000
    1SOL     OW10709   1.108   0.936   4.634 -0.7232  0.3110 -0.2255
    1SOL    HW210710   1.145   0.878   4.701 -0.0356 -0.3046 -1.1336
    1SOL    HW310711   1.014   0.915   4.634 -0.7228  0.2748  0.4939
    1SOL    MW410712   1.100   0.925   4.643 -0.6325  0.2250 -0.2508
    1SOL     OW10713   0.563   0.917   4.525  0.0996 -0.0749  0.5352
    1SOL    HW210714   0.496   0.863   4.566 -0.3299  0.4276  0.5083
    1SOL    HW310715   0.562   0.890   4.433 -0.4852  0.3356  0.4122
    1SOL    MW410716   0.554   0.907   4.518 -0.0342  0.0455  0.5155
    1SOL     OW10717   2.006   1.251   4.563 -0.4246 -0.5374  0.0249
    1SOL    HW210718   2.001   1.253   4.468 -1.1225  2.1434  0.0950
    1SOL    HW310719   2.099   1.237   4.582 -0.1017  0.1641 -1.0285
    1SOL    MW410720   2.018   1.249   4.553 -0.4740 -0.0912 -0.1054
    1SOL     OW10721   0.749   1.579   4.560  0.0504  0.5588 -0.3210
    1SOL    HW210722   0.653   1.585   4.562 -0.2259 -1.8876 -2.7489
    1SOL    HW310723   0.774   1.621   4.479  0.8394 -0.6349 -0.7084
    1SOL    MW410724   0.740   1.585   4.550  0.1180  0.0786 -0.6924
    1SOL     OW10725   1.036   1.205   4.516  0.6068 -0.3571 -0.2213
    1SOL    HW210726   1.047   1.119   4.557  0.6551 -0.5732 -0.6885
    1SOL    HW310727   0.942   1.222   4.523  0.6421 -0.3112  0.1451
    1SOL    MW410728   1.025   1.196   4.523  0.6179 -0.3796 -0.2346
    1SOL     OW10729   0.813   1.940   4.521 -0.5558 -0.1746 -0.1551
    1SOL    HW210730   0.837   1.849   4.502 -2.0376 -0.9672  1.6237
    1SOL    HW310731   0.891   1.990   4.498  0.5761 -1.9894 -0.3976
    1SOL    MW410732   0.827   1.935   4.515 -0.6020 -0.5186  0.0477
    1SOL     OW10733   0.630   2.320   4.572 -0.3307 -0.0512  0.4853
    1SOL    HW210734   0.707   2.321   4.517 -0.4001  0.1235  0.3908
    1SOL    HW310735   0.625   2.230   4.606 -0.3418 -0.1827  0.1363
    1SOL    MW410736   0.639   2.308   4.569 -0.3413 -0.0455  0.4272
    1SOL     OW10737   1.142   1.599   4.412  0.0606  0.0569  0.0239
    1SOL    HW210738   1.214   1.659   4.429  0.0355  0.4632 -1.2974
    1SOL    HW310739   1.158   1.525   4.471 -1.0289  2.2316  3.1953
    1SOL    MW410740   1.154   1.597   4.422 -0.0865  0.3974  0.2675
    1SOL     OW10741   0.103   2.505   4.534 -0.2525 -0.2632  0.1148
    1SOL    HW210742   0.067   2.495   4.446  0.7497  0.5452 -0.3849
    1SOL    HW310743   0.198   2.501   4.522 -0.0972  0.3855  1.0841
    1SOL    MW410744   0.111   2.503   4.521 -0.0998 -0.0708  0.1764
    1SOL     OW10745   1.038   2.604   4.549  0.2518 -0.0951  0.0467
    1SOL    HW210746   1.126   2.567   4.558 -0.0839 -0.5170  1.6594
    1SOL    HW310747   1.053   2.698   4.541  0.8176 -0.0830  1.1271
    1SOL    MW410748   1.052   2.612   4.549  0.2823 -0.1490  0.4020
    1SOL     OW10749   0.371   2.520   4.497  0.4962  0.0518  0.5330
    1SOL    HW210750   0.447   2.488   4.545  0.3199  0.2156  0.9258
    1SOL    HW310751   0.386   2.491   4.407  0.4516 -0.9414  0.8349
    1SOL    MW410752   0.383   2.512   4.492  0.4671 -0.0577  0.6251
    1SOL     OW10753   1.229   3.213   4.557  0.4350 -0.3028  0.4740
    1SOL    HW210754   1.139   3.182   4.568  0.0671  0.7595  0.5231
    1SOL    HW310755   1.283   3.134   4.562 -0.6686 -1.2369 -1.9722
    1SOL    MW410756   1.224   3.199   4.559  0.2408 -0.2861  0.1578
    1SOL     OW10757   0.461   3.192   4.537  0.2102 -0.4000 -0.2258
    1SOL    HW210758   0.448   3.281   4.570 -0.4437 -0.0254 -1.4413
    1SOL    HW310759   0.415   3.136   4.599  0.0945  0.1684  0.2003
    1SOL    MW410760   0.453   3.196   4.549  0.1086 -0.2756 -0.3300
    1SOL     OW10761   1.377   4.489   4.606  0.0545  0.1804  0.1594
    1SOL    HW210762   1.300   4.431   4.608 -0.8662  1.2873 -1.7958
    1SOL    HW310763   1.441   4.442   4.554 -0.0681  0.1801  0.0074
    1SOL    MW410764   1.375   4.475   4.600 -0.0831  0.3271 -0.1187
    1SOL     OW10765   4.427   2.708   4.641 -0.2196 -0.3681  0.1519
    1SOL    HW210766   4.467   2.659   4.570  0.9180 -0.0970  0.5950
    1SOL    HW310767   4.487   2.780   4.658 -0.3679 -0.5538  1.5325
    1SOL    MW410768   4.440   2.711   4.634 -0.0892 -0.3567  0.3924
    1SOL     OW10769   4.348   3.598   4.510  0.0031 -0.0111 -0.2058
    1SOL    HW210770   4.290   3.529   4.545 -0.7570  1.0102  0.5979
    1SOL    HW310771   4.321   3.608   4.419  1.1383 -1.8162 -0.7614
    1SOL    MW410772   4.337   3.590   4.503  0.0529 -0.1147 -0.1731
    1SOL     OW10773   0.831   4.301   4.539  0.1803 -0.0124  0.1738
    1SOL    HW210774   0.749   4.346   4.561 -0.0098 -0.9327  1.4116
    1SOL    HW310775   0.810   4.208   4.545  1.0529 -0.2676 -0.5385
    1SOL    MW410776   0.817   4.294   4.543  0.2703 -0.1674  0.2432
    1SOL     OW10777   4.483   4.279   4.632 -0.1420 -0.2635  0.4047
    1SOL    HW210778   4.479   4.186   4.611 -0.1080 -0.4431  1.1932
    1SOL    HW310779   4.397   4.313   4.607 -0.4386 -0.6647  0.8895
    1SOL    MW410780   4.472   4.271   4.626 -0.1769 -0.3400  0.5732
    1SOL     OW10781   4.463   3.991   4.563  0.4608 -0.0170  0.0204
    1SOL    HW210782   4.538   3.935   4.581  1.0126  0.7710  0.2068
    1SOL    HW310783   4.392   3.955   4.616  0.9317 -0.2662  0.4797
    1SOL    MW410784   4.463   3.979   4.572  0.5956  0.0541  0.1059
    1SOL     OW10785   0.194   4.438   4.498 -0.3213 -0.7716 -0.2769
    1SOL    HW210786   0.266   4.377   4.482 -0.4095 -1.1334  0.6772
    1SOL    HW310787   0.127   4.385   4.541 -0.2213  0.1044  0.9678
    1SOL    MW410788   0.195   4.423   4.501 -0.3198 -0.7038  0.0129
    1SOL     OW10789   1.202   0.359   4.711  0.0016 -0.0848  0.1572
    1SOL    HW210790   1.239   0.362   4.799  1.9633 -0.0822 -0.6312
    1SOL    HW310791   1.108   0.348   4.724  0.0264  1.9742  2.2762
    1SOL    MW410792   1.195   0.358   4.724  0.2638  0.1872  0.3333
    1SOL     OW10793   0.920   0.334   4.741  0.2962 -0.3511  0.2924
    1SOL    HW210794   0.903   0.423   4.708  1.4746  0.6664  2.3477
    1SOL    HW310795   0.893   0.277   4.669 -1.0431  1.6389 -0.8468
    1SOL    MW410796   0.914   0.338   4.727  0.2750  0.0457  0.4129
    1SOL     OW10797   0.573   0.461   4.511  0.2129  0.4723 -0.0366
    1SOL    HW210798   0.583   0.480   4.418  0.8357  0.9176  0.1225
    1SOL    HW310799   0.630   0.385   4.526 -0.5046 -0.1053 -0.1824
    1SOL    MW410800   0.582   0.453   4.500  0.2004  0.4548 -0.0348
    1SOL     OW10801   1.618   0.987   4.636  0.0060  0.1527 -0.2591
    1SOL    HW210802   1.542   0.961   4.584 -0.8981 -0.0110  1.1455
    1SOL    HW310803   1.582   1.014   4.720  1.5402 -0.3233  0.5619
    1SOL    MW410804   1.604   0.987   4.640  0.0892  0.0684  0.0348
    1SOL     OW10805   1.775   0.762   4.528 -0.4058 -0.7985  0.6241
    1SOL    HW210806   1.718   0.823   4.574  0.0403 -0.5747  0.8899
    1SOL    HW310807   1.789   0.802   4.442  0.4931 -0.1497  1.0664
    1SOL    MW410808   1.770   0.775   4.523 -0.2283 -0.6834  0.7176
    1SOL     OW10809   0.077   1.107   4.747  0.0765 -0.2158 -0.0970
    1SOL    HW210810   0.110   1.018   4.733 -0.5176 -0.2153 -1.5537
    1SOL    HW310811  -0.015   1.095   4.770 -0.3584  0.0581 -1.5925
    1SOL    MW410812   0.070   1.093   4.748 -0.0593 -0.1796 -0.4869
    1SOL     OW10813   0.768   1.296   4.513 -0.1346  0.1824  0.6255
    1SOL    HW210814   0.774   1.390   4.530 -0.6004  0.2632  0.3458
    1SOL    HW310815   0.704   1.264   4.576 -1.3918  0.3757 -0.5205
    1SOL    MW410816   0.760   1.304   4.523 -0.3619  0.2185  0.4377
    1SOL     OW10817   0.849   0.887   4.541 -0.1821 -0.3876  0.4281
    1SOL    HW210818   0.754   0.887   4.557 -0.0753  2.6712  1.3067
    1SOL    HW310819   0.856   0.873   4.446 -1.4207 -1.9893  0.5321
    1SOL    MW410820   0.837   0.885   4.531 -0.3315 -0.1954  0.5574
    1SOL     OW10821   1.732   1.228   4.505  0.2818  0.0618  0.0090
    1SOL    HW210822   1.718   1.138   4.536 -0.5943 -0.1939 -1.1049
    1SOL    HW310823   1.821   1.249   4.532  0.2089 -0.8364  1.0161
    1SOL    MW410824   1.742   1.219   4.513  0.1564 -0.0906 -0.0048
    1SOL     OW10825   1.399   1.368   4.831  0.1071  0.0781  0.2536
    1SOL    HW210826   1.481   1.406   4.801 -0.0663 -0.6555 -1.1731
    1SOL    HW310827   1.335   1.394   4.765 -0.5748 -0.3353  0.7424
    1SOL    MW410828   1.401   1.377   4.818 -0.0056 -0.0733  0.1292
    1SOL     OW10829   0.899   2.374   4.459  0.1912 -0.6934 -0.0883
    1SOL    HW210830   0.939   2.454   4.493  1.0123 -1.5786  1.0637
    1SOL    HW310831   0.891   2.389   4.365  1.1871  0.3725 -0.0082
    1SOL    MW410832   0.903   2.387   4.451  0.4309 -0.6697  0.0749
    1SOL     OW10833   1.706   2.829   4.573 -0.5349  0.1165 -0.2469
    1SOL    HW210834   1.685   2.917   4.603 -2.1743  0.0843 -1.2447
    1SOL    HW310835   1.747   2.843   4.487  0.8081 -0.0111  0.3524
    1SOL    MW410836   1.709   2.843   4.565 -0.5740  0.0956 -0.2995
    1SOL     OW10837   1.383   2.972   4.509  0.1540 -0.1332 -0.2676
    1SOL    HW210838   1.403   2.890   4.552  0.1429 -0.3126 -0.5974
    1SOL    HW310839   1.460   2.991   4.456  0.2628  0.2035  0.0109
    1SOL    MW410840   1.396   2.964   4.507  0.1669 -0.1125 -0.2742
    1SOL     OW10841   1.340   3.729   4.681 -0.6131 -0.1965  0.1850
    1SOL    HW210842   1.404   3.772   4.624  0.5740  0.1979  1.7790
    1SOL    HW310843   1.343   3.637   4.656 -1.4038  0.2496 -1.5990
    1SOL    MW410844   1.349   3.723   4.670 -0.5609 -0.0861  0.1602
    1SOL     OW10845   0.651   2.809   4.535 -0.2530  0.0702  0.2084
    1SOL    HW210846   0.704   2.740   4.574  0.5600  1.1204  1.0017
    1SOL    HW310847   0.561   2.785   4.555 -0.1777 -2.1967 -1.8918
    1SOL    MW410848   0.646   2.797   4.543 -0.1359 -0.0904  0.0367
    1SOL     OW10849   0.512   3.958   4.533 -0.0305  0.1482 -0.5017
    1SOL    HW210850   0.602   3.991   4.538 -0.0785  0.2131  0.0610
    1SOL    HW310851   0.490   3.962   4.440  0.3425  0.6889 -0.5748
    1SOL    MW410852   0.521   3.963   4.522  0.0124  0.2282 -0.4368
    1SOL     OW10853   0.959   3.092   4.556  0.2335  0.0196  0.2139
    1SOL    HW210854   0.983   3.002   4.537 -0.1971  0.1309 -0.8470
    1SOL    HW310855   0.870   3.088   4.590  0.2798  0.0319  0.3389
    1SOL    MW410856   0.951   3.080   4.558  0.1828  0.0360  0.0901
    1SOL     OW10857   0.699   3.051   4.632  0.1230 -0.1730  0.1355
    1SOL    HW210858   0.622   3.095   4.596 -0.2133  0.0639  1.1450
    1SOL    HW310859   0.697   2.964   4.592 -0.1337  0.1564 -0.5780
    1SOL    MW410860   0.688   3.045   4.622  0.0448 -0.0982  0.1750
    1SOL     OW10861   1.554   3.815   4.508  0.2245  0.1828 -0.0923
    1SOL    HW210862   1.535   3.908   4.520 -0.5520 -0.0663  0.6283
    1SOL    HW310863   1.615   3.794   4.578  0.4310  0.1522 -0.2804
    1SOL    MW410864   1.559   3.825   4.519  0.1494  0.1459 -0.0224
    1SOL     OW10865   0.437   3.466   4.575 -0.0181  0.3722  0.2219
    1SOL    HW210866   0.490   3.541   4.549 -1.4841  1.2171 -0.3906
    1SOL    HW310867   0.347   3.492   4.557 -0.5742 -1.4510  0.2027
    1SOL    MW410868   0.432   3.479   4.569 -0.2849  0.2429  0.1383
    1SOL     OW10869   0.383   4.228   4.497  0.1931 -0.2859  0.3319
    1SOL    HW210870   0.422   4.140   4.494  0.2429 -0.3173  1.6120
    1SOL    HW310871   0.453   4.283   4.532  0.8041  0.6443 -2.2203
    1SOL    MW410872   0.398   4.223   4.501  0.2803 -0.1669  0.1640
    1SOL     OW10873   0.783   4.017   4.526 -0.9083 -0.2595 -0.2400
    1SOL    HW210874   0.813   3.932   4.557  0.8069  0.9072  1.4059
    1SOL    HW310875   0.833   4.032   4.446 -0.1383 -0.1449  0.2628
    1SOL    MW410876   0.793   4.008   4.520 -0.5805 -0.0901  0.0434
    1SOL     OW10877   0.584   4.437   4.556  0.0665  0.3510  0.2788
    1SOL    HW210878   0.648   4.496   4.595 -0.3348  1.0925 -0.1836
    1SOL    HW310879   0.594   4.450   4.462  0.2296 -0.5875  0.1600
    1SOL    MW410880   0.594   4.446   4.549  0.0350  0.3257  0.2017
    1SOL     OW10881   1.774   4.015   4.715  0.5645 -0.3345  0.1591
    1SOL    HW210882   1.759   3.930   4.755 -0.8596 -0.8666 -1.4295
    1SOL    HW310883   1.824   3.996   4.635  1.4853  0.4812  0.5227
    1SOL    MW410884   1.779   4.001   4.710  0.4979 -0.2971 -0.0024
    1SOL     OW10885   1.545   4.309   4.471 -0.0698  0.4202  0.4731
    1SOL    HW210886   1.635   4.340   4.473 -0.4068  1.3914  1.2156
    1SOL    HW310887   1.525   4.298   4.378  0.6207  0.7600  0.2804
    1SOL    MW410888   1.554   4.311   4.459 -0.0232  0.5927  0.5455
    1SOL     OW10889   1.132   4.321   4.544  0.2092 -0.4937 -0.3851
    1SOL    HW210890   1.164   4.232   4.526 -1.2047 -1.1534  0.3230
    1SOL    HW310891   1.046   4.308   4.584  0.8548  1.1344  1.6064
    1SOL    MW410892   1.125   4.308   4.547  0.1079 -0.3667 -0.0291
    1SOL     OW10893   1.164   0.557   4.492 -0.3328  0.0096 -0.4793
    1SOL    HW210894   1.072   0.579   4.507 -0.2066 -0.3123  0.8061
    1SOL    HW310895   1.178   0.476   4.540  0.8811  0.5866  0.1864
    1SOL    MW410896   1.154   0.549   4.500 -0.1560  0.0432 -0.2217
    1SOL     OW10897   1.665   0.059   4.472 -0.0101 -0.4071  0.4147
    1SOL    HW210898   1.570   0.051   4.482 -0.0135  0.1985  0.9150
    1SOL    HW310899   1.701  -0.012   4.524 -0.1560  0.1528  1.2939
    1SOL    MW410900   1.657   0.049   4.480 -0.0297 -0.2533  0.5960
    1SOL     OW10901   1.395   0.687   4.604 -0.8194  0.3199  0.1777
    1SOL    HW210902   1.322   0.635   4.571 -0.6682  0.6401 -0.6699
    1SOL    HW310903   1.385   0.772   4.561 -0.6171  0.7380  0.9567
    1SOL    MW410904   1.384   0.691   4.594 -0.7728  0.4173  0.1688
    1SOL     OW10905   1.669   1.454   4.721 -0.6801  0.2882 -0.0965
    1SOL    HW210906   1.691   1.542   4.689  0.8941  0.1680  0.6259
    1SOL    HW310907   1.699   1.395   4.653 -0.2192  0.2172  0.1658
    1SOL    MW410908   1.675   1.458   4.708 -0.4116  0.2630  0.0339
    1SOL     OW10909   0.895   0.591   4.549 -1.2880  0.3187  0.3659
    1SOL    HW210910   0.874   0.683   4.570 -3.0172  0.0421 -0.0183
    1SOL    HW310911   0.811   0.555   4.519 -0.5229 -1.2872  0.1551
    1SOL    MW410912   0.881   0.599   4.548 -1.4153  0.0704  0.2875
    1SOL     OW10913   2.047   0.431   4.478 -0.1071 -0.0928 -0.3974
    1SOL    HW210914   2.123   0.416   4.536  0.0173  0.4553 -0.4166
    1SOL    HW310915   1.977   0.380   4.518  0.4018 -1.0151 -0.6600
    1SOL    MW410916   2.048   0.423   4.491 -0.0236 -0.1422 -0.4344
    1SOL     OW10917   1.442   1.222   4.485 -0.2820 -0.3750  0.0733
    1SOL    HW210918   1.403   1.135   4.487 -0.9252 -0.0656  1.0811
    1SOL    HW310919   1.530   1.210   4.521 -0.6292 -0.4775  0.8873
    1SOL    MW410920   1.449   1.209   4.490 -0.4127 -0.3477  0.3138
    1SOL     OW10921   1.576   1.717   4.312 -0.0319 -0.0783  0.0739
    1SOL    HW210922   1.549   1.637   4.266  0.2292 -0.4809  0.6140
    1SOL    HW310923   1.496   1.746   4.357 -0.2087  0.1442 -0.3845
    1SOL    MW410924   1.562   1.710   4.312 -0.0209 -0.1022  0.0844
    1SOL     OW10925   1.891   2.785   4.802  0.3134 -0.3220 -0.7124
    1SOL    HW210926   1.936   2.722   4.745  0.2735 -0.2208 -0.8552
    1SOL    HW310927   1.798   2.770   4.786  0.2069 -2.2492  1.4297
    1SOL    MW410928   1.885   2.775   4.793  0.2941 -0.5631 -0.4487
    1SOL     OW10929   1.979   2.975   4.611 -0.3178  0.0849  0.1396
    1SOL    HW210930   1.966   2.915   4.538 -0.2852  0.3946 -0.1215
    1SOL    HW310931   1.942   2.929   4.687 -0.9457  0.0379 -0.1917
    1SOL    MW410932   1.973   2.961   4.612 -0.3963  0.1194  0.0620
    1SOL     OW10933   0.762   2.577   4.630  0.1414 -0.1086 -0.3588
    1SOL    HW210934   0.858   2.581   4.628  0.1195  0.1730 -1.7942
    1SOL    HW310935   0.742   2.484   4.629  0.4118 -0.1758  0.6651
    1SOL    MW410936   0.772   2.565   4.629  0.1742 -0.0801 -0.4129
    1SOL     OW10937   1.232   4.042   4.531 -0.8072  0.2321 -0.1435
    1SOL    HW210938   1.172   3.971   4.553 -0.0500 -0.3668  0.0350
    1SOL    HW310939   1.308   4.028   4.589 -0.3452  0.7645 -0.6116
    1SOL    MW410940   1.234   4.031   4.542 -0.6465  0.2232 -0.1817
    1SOL     OW10941   1.298   2.488   4.531 -0.0289 -0.1352  0.2013
    1SOL    HW210942   1.358   2.559   4.552 -0.1245 -0.2081  0.7147
    1SOL    HW310943   1.290   2.491   4.435 -0.6431  1.0222  0.2899
    1SOL    MW410944   1.305   2.498   4.521 -0.1224  0.0079  0.2809
    1SOL     OW10945   1.482   2.685   4.520 -0.0274 -0.2263  0.4338
    1SOL    HW210946   1.562   2.724   4.556 -0.6722  2.2410 -0.6342
    1SOL    HW310947   1.500   2.675   4.426 -0.5687 -0.6738  0.3769
    1SOL    MW410948   1.495   2.689   4.512 -0.1839  0.0403  0.2856
    1SOL     OW10949   1.374   3.443   4.601  0.1500 -0.3177  0.0123
    1SOL    HW210950   1.468   3.426   4.591  0.3530  0.7481  0.0688
    1SOL    HW310951   1.334   3.356   4.600  1.2755 -0.8814  1.5046
    1SOL    MW410952   1.381   3.429   4.600  0.3252 -0.2513  0.2165
    1SOL     OW10953   1.103   3.788   4.555  0.0744  0.5757  0.1074
    1SOL    HW210954   1.178   3.754   4.604 -0.5196  1.6622  1.7960
    1SOL    HW310955   1.109   3.744   4.470  1.2067 -1.2171  1.0742
    1SOL    MW410956   1.114   3.778   4.550  0.1454  0.4826  0.4582
    1SOL     OW10957   0.621   3.699   4.518 -0.1718 -0.3895 -0.3171
    1SOL    HW210958   0.583   3.787   4.515  0.1330 -0.2546 -0.2137
    1SOL    HW310959   0.700   3.708   4.571  0.5593 -0.4686 -1.3909
    1SOL    MW410960   0.626   3.712   4.525 -0.0351 -0.3822 -0.4449
    1SOL     OW10961   2.102   3.537   4.504  0.0023  0.2636 -0.3422
    1SOL    HW210962   2.087   3.568   4.415 -1.7885 -1.2186 -0.6035
    1SOL    HW310963   2.119   3.443   4.494 -3.1301 -0.5463  1.0291
    1SOL    MW410964   2.102   3.529   4.491 -0.6473 -0.0389 -0.1960
    1SOL     OW10965   1.654   3.419   4.529 -0.1824  0.9639  0.0836
    1SOL    HW210966   1.672   3.401   4.437  0.4971  0.2410  0.3577
    1SOL    HW310967   1.682   3.340   4.575  0.0847  1.5750  0.9843
    1SOL    MW410968   1.660   3.406   4.523 -0.0575  0.9491  0.2384
    1SOL     OW10969   2.513   3.636   4.506 -0.1460 -0.2507 -0.3612
    1SOL    HW210970   2.438   3.673   4.553 -1.0383 -1.6587 -0.6592
    1SOL    HW310971   2.585   3.698   4.523 -1.5661  1.5510 -0.7487
    1SOL    MW410972   2.513   3.649   4.515 -0.4511 -0.1986 -0.4516
    1SOL     OW10973   0.848   3.780   4.651 -0.3703  0.5477 -0.1543
    1SOL    HW210974   0.932   3.762   4.608 -1.2380  0.0028 -1.6399
    1SOL    HW310975   0.872   3.820   4.735  1.3339  2.8966 -1.6899
    1SOL    MW410976   0.862   3.783   4.656 -0.2599  0.7858 -0.5531
    1SOL     OW10977   1.835   4.293   4.773 -0.1936  0.0965 -0.4731
    1SOL    HW210978   1.930   4.282   4.780 -0.3125 -0.5675  0.0441
    1SOL    HW310979   1.803   4.208   4.743 -0.5682  0.4938 -1.2256
    1SOL    MW410980   1.843   4.280   4.770 -0.2586  0.0620 -0.5040
    1SOL     OW10981   2.274   0.322   4.626  0.3110 -0.0588 -0.3736
    1SOL    HW210982   2.344   0.375   4.588 -0.4743  1.1661 -0.1175
    1SOL    HW310983   2.255   0.363   4.710  0.6073 -1.5330  0.4367
    1SOL    MW410984   2.281   0.334   4.632  0.2463 -0.0917 -0.2327
    1SOL     OW10985   1.378   0.079   4.534 -0.3464  0.1464 -0.4218
    1SOL    HW210986   1.333   0.129   4.602 -0.5142  1.2015 -1.2922
    1SOL    HW310987   1.371  -0.012   4.562 -1.1338  0.5000  0.5471
    1SOL    MW410988   1.371   0.074   4.547 -0.4725  0.3322 -0.4086
    1SOL     OW10989   1.804   0.305   4.556 -0.2403  0.0496  0.2616
    1SOL    HW210990   1.744   0.234   4.531  0.8844 -0.1621 -2.0162
    1SOL    HW310991   1.753   0.385   4.547 -1.4196 -0.4209  2.5166
    1SOL    MW410992   1.789   0.306   4.552 -0.2475 -0.0404  0.2589
    1SOL     OW10993   2.345   0.075   4.489 -0.3235  0.1959  0.4624
    1SOL    HW210994   2.324   0.098   4.399  0.2182  0.9703  0.5313
    1SOL    HW310995   2.312   0.148   4.541 -1.8103 -0.8449  1.0263
    1SOL    MW410996   2.338   0.088   4.484 -0.4482  0.1607  0.5460
    1SOL     OW10997   2.059   0.690   4.582  0.0141 -0.5407  0.5515
    1SOL    HW210998   2.064   0.598   4.553  1.1817 -0.0508 -0.8793
    1SOL    HW310999   1.967   0.713   4.569  0.2413 -0.7234 -1.6914
    1SOL    MW411000   2.047   0.681   4.576  0.1979 -0.5001  0.0672
    1SOL     OW11001   1.624   0.534   4.500  0.1689 -0.3161 -0.1275
    1SOL    HW211002   1.678   0.610   4.521 -0.9204  0.0495  1.4232
    1SOL    HW311003   1.543   0.548   4.549  0.2464 -2.8695  0.7822
    1SOL    MW411004   1.620   0.546   4.509  0.0354 -0.6047  0.1969
    1SOL     OW11005   2.010   1.506   4.695  0.0147 -0.4349 -0.2339
    1SOL    HW211006   1.931   1.491   4.747 -0.3062  0.2088 -0.5347
    1SOL    HW311007   2.021   1.425   4.645 -0.4844 -0.5062 -0.2328
    1SOL    MW411008   2.001   1.493   4.695 -0.0932 -0.3593 -0.2728
    1SOL     OW11009   1.028   2.114   4.481  0.0587 -0.2495 -0.2153
    1SOL    HW211010   1.106   2.111   4.537  0.2135  0.7063 -0.3829
    1SOL    HW311011   1.000   2.205   4.483 -0.6378 -0.4458 -0.7459
    1SOL    MW411012   1.035   2.126   4.489 -0.0126 -0.1495 -0.3080
    1SOL     OW11013   1.424   1.072   4.865  0.3173 -0.0392 -0.4423
    1SOL    HW211014   1.477   1.064   4.944  0.3799  0.5448 -0.4257
    1SOL    HW311015   1.418   1.166   4.849  0.0210 -0.1399 -0.9411
    1SOL    MW411016   1.430   1.083   4.873  0.2863  0.0247 -0.5059
    1SOL     OW11017   1.306   1.986   4.606  0.2480 -0.0844  0.5098
    1SOL    HW211018   1.333   1.988   4.698 -1.6501  0.7698  1.0791
    1SOL    HW311019   1.334   2.070   4.571  0.4489 -0.1730  0.4559
    1SOL    MW411020   1.313   1.997   4.613  0.0240  0.0166  0.5779
    1SOL     OW11021   1.747   1.694   4.546 -0.0656 -0.0795  0.3525
    1SOL    HW211022   1.814   1.668   4.483  0.7449 -1.5774  1.7857
    1SOL    HW311023   1.667   1.702   4.494  0.0942 -3.4874 -0.5618
    1SOL    MW411024   1.745   1.691   4.531  0.0623 -0.7268  0.4206
    1SOL     OW11025   1.987   2.268   4.111  0.3338 -0.2018 -0.5703
    1SOL    HW211026   1.985   2.300   4.020 -1.8862 -1.4481 -0.9750
    1SOL    HW311027   1.920   2.319   4.156 -0.7220 -1.7529 -0.3720
    1SOL    MW411028   1.978   2.279   4.105 -0.0985 -0.5710 -0.5975
    1SOL     OW11029   1.358   2.220   4.460 -0.6563  0.7031 -0.5615
    1SOL    HW211030   1.452   2.226   4.443 -0.3051 -1.1486  0.6004
    1SOL    HW311031   1.332   2.310   4.481  1.3904  0.8558  1.6063
    1SOL    MW411032   1.367   2.233   4.461 -0.3400  0.4790 -0.1216
    1SOL     OW11033   2.276   2.967   4.324 -0.4364 -0.1016  0.6330
    1SOL    HW211034   2.199   2.923   4.288 -1.1734  0.4601  1.5000
    1SOL    HW311035   2.254   2.980   4.416  0.6950  0.0815  0.8757
    1SOL    MW411036   2.263   2.963   4.331 -0.3841 -0.0033  0.7796
    1SOL     OW11037   2.246   2.634   4.120 -0.2857  0.3310 -0.3486
    1SOL    HW211038   2.226   2.544   4.148 -0.0654 -0.0033 -1.2568
    1SOL    HW311039   2.175   2.687   4.157 -0.3828 -0.2088  0.2441
    1SOL    MW411040   2.234   2.629   4.129 -0.2697  0.2158 -0.3901
    1SOL     OW11041   1.505   4.068   4.603 -1.0655  0.1449  0.0041
    1SOL    HW211042   1.519   4.142   4.544 -0.9509 -0.4403 -0.6940
    1SOL    HW311043   1.585   4.064   4.656 -1.4908  1.1591  0.7515
    1SOL    MW411044   1.518   4.077   4.602 -1.1065  0.2012  0.0105
    1SOL     OW11045   2.463   3.195   4.347 -0.6931  0.0877  0.6819
    1SOL    HW211046   2.411   3.126   4.307 -0.9332  1.3312 -1.2125
    1SOL    HW311047   2.498   3.156   4.427 -1.5277 -1.9252  0.0842
    1SOL    MW411048   2.461   3.181   4.352 -0.8349 -0.0138  0.3533
    1SOL     OW11049   1.853   3.594   4.622 -0.1750 -0.4145  0.1452
    1SOL    HW211050   1.938   3.556   4.599  0.6935  1.2542  0.4766
    1SOL    HW311051   1.789   3.541   4.575  0.8690 -3.0343  1.5609
    1SOL    MW411052   1.856   3.582   4.613  0.0774 -0.5403  0.3753
    1SOL     OW11053   2.507   3.836   4.792 -0.1025  0.2889 -0.2427
    1SOL    HW211054   2.437   3.775   4.768  0.3282  0.0024 -0.7950
    1SOL    HW311055   2.476   3.921   4.760 -0.1558  0.1467 -0.5769
    1SOL    MW411056   2.493   3.839   4.785 -0.0527  0.2322 -0.3595
    1SOL     OW11057   2.171   3.946   4.559  0.0637  0.0670  0.0965
    1SOL    HW211058   2.078   3.923   4.549  0.1576 -0.2191 -0.1278
    1SOL    HW311059   2.200   3.964   4.470  0.0644  0.7720  0.2389
    1SOL    MW411060   2.162   3.945   4.546  0.0761  0.1225  0.0858
    1SOL     OW11061   2.291   3.705   4.631  0.4570  0.8050 -0.1557
    1SOL    HW211062   2.237   3.634   4.596  0.6046  0.8154 -0.4116
    1SOL    HW311063   2.245   3.785   4.605  2.1087  0.8971 -2.9552
    1SOL    MW411064   2.278   3.706   4.623  0.6945  0.8185 -0.5589
    1SOL     OW11065   1.898   3.855   4.518  0.2899 -0.3808 -0.1079
    1SOL    HW211066   1.885   3.770   4.559  0.5050  0.3668  1.5509
    1SOL    HW311067   1.846   3.852   4.438 -1.1264 -1.4284  0.8383
    1SOL    MW411068   1.889   3.843   4.513  0.1314 -0.4206  0.2356
    1SOL     OW11069   2.115   4.210   4.719  0.2015 -0.1067  0.0175
    1SOL    HW211070   2.201   4.240   4.749  0.4164 -0.0147 -0.6961
    1SOL    HW311071   2.132   4.125   4.678 -0.2965 -0.8885  1.3542
    1SOL    MW411072   2.129   4.202   4.718  0.1643 -0.1969  0.1001
    1SOL     OW11073   1.796   4.511   4.601  0.3466  0.3883 -0.3562
    1SOL    HW211074   1.887   4.503   4.572 -0.0927 -1.8496 -1.2920
    1SOL    HW311075   1.788   4.445   4.671 -0.1153  1.7846  0.9339
    1SOL    MW411076   1.807   4.501   4.607  0.2277  0.2775 -0.3095
    1SOL     OW11077   2.074   4.432   4.509 -0.0310  0.1734 -0.3387
    1SOL    HW211078   2.088   4.356   4.566 -0.0531 -0.0154 -0.5832
    1SOL    HW311079   2.150   4.488   4.524 -0.5185  0.5992  0.6216
    1SOL    MW411080   2.086   4.429   4.519 -0.0982  0.2050 -0.2437
    1SOL     OW11081   2.363   4.475   4.557 -0.3994 -0.1475  0.3972
    1SOL    HW211082   2.415   4.448   4.482 -0.4447 -0.6569  0.5510
    1SOL    HW311083   2.352   4.570   4.546  1.8782  0.2431  1.1803
    1SOL    MW411084   2.368   4.484   4.546 -0.1047 -0.1631  0.5207
    1SOL     OW11085   1.267   1.411   4.587 -0.1426 -0.4106  0.0519
    1SOL    HW211086   1.342   1.368   4.546 -0.0736 -0.8793  0.6504
    1SOL    HW311087   1.197   1.345   4.585 -0.5716  0.0631 -0.6033
    1SOL    MW411088   1.267   1.397   4.581 -0.1901 -0.4100  0.0448
    1SOL     OW11089   2.642   0.086   4.528  0.1416 -0.1346  0.0986
    1SOL    HW211090   2.547   0.087   4.512  0.3000  0.2006 -0.8601
    1SOL    HW311091   2.681   0.098   4.441  1.0786 -1.1771  0.3621
    1SOL    MW411092   2.634   0.088   4.514  0.2861 -0.2279  0.0067
    1SOL     OW11093   2.496   0.747   4.568  0.0043  0.2821 -0.0802
    1SOL    HW211094   2.413   0.787   4.543 -1.0312 -0.7373  1.6282
    1SOL    HW311095   2.552   0.821   4.593 -0.0370  1.0446 -2.1352
    1SOL    MW411096   2.493   0.762   4.568 -0.1376  0.2482 -0.1259
    1SOL     OW11097   2.914   0.861   4.600 -0.2047  0.4569 -0.2077
    1SOL    HW211098   2.990   0.908   4.565  0.4548 -0.1227  0.4329
    1SOL    HW311099   2.952   0.796   4.659 -1.1688 -0.2952 -0.4265
    1SOL    MW411100   2.929   0.859   4.603 -0.2449  0.2813 -0.1521
    1SOL     OW11101   2.281   1.169   4.626 -0.6627  0.4097 -0.2493
    1SOL    HW211102   2.308   1.188   4.716  0.2346  0.8371 -0.6034
    1SOL    HW311103   2.325   1.236   4.573 -2.0075  0.7827 -0.8984
    1SOL    MW411104   2.291   1.180   4.631 -0.7222  0.5153 -0.3810
    1SOL     OW11105   2.439   1.380   4.491 -0.1410  0.4830 -0.2557
    1SOL    HW211106   2.521   1.365   4.539 -1.1343 -0.2718  1.2274
    1SOL    HW311107   2.429   1.475   4.491  0.7036  0.5832 -0.4072
    1SOL    MW411108   2.449   1.390   4.498 -0.1607  0.3965 -0.0801
    1SOL     OW11109   2.418   1.650   4.480 -0.0278 -0.3776  0.1496
    1SOL    HW211110   2.470   1.730   4.494  0.4793 -0.5256 -0.9010
    1SOL    HW311111   2.334   1.670   4.521  0.0252  0.7742 -0.2691
    1SOL    MW411112   2.414   1.663   4.488  0.0463 -0.2452 -0.0439
    1SOL     OW11113   2.161   1.701   4.553  0.1726  0.0248 -0.2726
    1SOL    HW211114   2.092   1.705   4.486 -0.3307  0.8183  0.2936
    1SOL    HW311115   2.125   1.646   4.622  0.4870 -0.3593 -0.4152
    1SOL    MW411116   2.147   1.695   4.553  0.1478  0.0789 -0.2174
    1SOL     OW11117   2.246   2.097   4.871  0.4420 -0.3664 -0.2029
    1SOL    HW211118   2.223   2.187   4.852  0.6489 -0.3837 -0.5405
    1SOL    HW311119   2.164   2.056   4.898  0.1310 -0.3565 -1.1196
    1SOL    MW411120   2.232   2.103   4.872  0.4284 -0.3674 -0.3681
    1SOL     OW11121   2.487   2.059   4.243  0.1429  0.1756 -0.3634
    1SOL    HW211122   2.409   2.008   4.220  0.1077 -0.0801  0.2938
    1SOL    HW311123   2.560   2.012   4.203  0.0334  0.0145 -0.3750
    1SOL    MW411124   2.486   2.046   4.235  0.1240  0.1204 -0.2785
    1SOL     OW11125   2.596   2.437   4.458 -0.1579 -0.0785  0.0797
    1SOL    HW211126   2.515   2.387   4.456 -1.1335  1.5104 -1.2769
    1SOL    HW311127   2.569   2.526   4.481  1.2251  0.4044 -0.1079
    1SOL    MW411128   2.582   2.442   4.461 -0.1042  0.1948 -0.1240
    1SOL     OW11129   1.732   3.156   4.578  0.2159 -0.2358  0.2450
    1SOL    HW211130   1.705   3.154   4.486  0.8954 -0.2966  0.0399
    1SOL    HW311131   1.825   3.132   4.576  0.5704  1.0448  0.8213
    1SOL    MW411132   1.741   3.153   4.565  0.3524 -0.0749  0.2937
    1SOL     OW11133   2.202   3.283   4.431  0.4185 -0.0288 -0.3742
    1SOL    HW211134   2.152   3.238   4.363 -0.4786 -0.9989  0.8840
    1SOL    HW311135   2.291   3.285   4.398 -0.1232  0.1296 -1.8747
    1SOL    MW411136   2.207   3.277   4.418  0.2291 -0.1359 -0.4063
    1SOL     OW11137   2.552   3.056   4.584 -0.1254 -0.3789  0.2370
    1SOL    HW211138   2.461   3.055   4.615 -0.0381 -0.2629  0.4990
    1SOL    HW311139   2.585   3.142   4.611 -0.3375  0.1061 -1.0175
    1SOL    MW411140   2.544   3.067   4.592 -0.1421 -0.2995  0.1068
    1SOL     OW11141   2.603   3.341   4.598 -0.2630  0.1071  0.3306
    1SOL    HW211142   2.696   3.353   4.580  0.2580 -1.3392  1.9726
    1SOL    HW311143   2.564   3.426   4.577  1.3213  0.5434 -0.9635
    1SOL    MW411144   2.610   3.354   4.593  0.0143 -0.0260  0.3767
    1SOL     OW11145   1.654   3.740   4.749 -0.2549  0.3965  0.1268
    1SOL    HW211146   1.711   3.668   4.724  0.0775  0.4437  0.7538
    1SOL    HW311147   1.574   3.698   4.781  0.1109  0.2994  0.9094
    1SOL    MW411148   1.651   3.725   4.750 -0.1627  0.3898  0.3128
    1SOL     OW11149   2.676   4.066   4.518 -0.4339  0.3796  0.5311
    1SOL    HW211150   2.589   4.079   4.554 -0.8014  1.3949 -0.6954
    1SOL    HW311151   2.663   4.058   4.423  0.7128 -0.2992  0.4097
    1SOL    MW411152   2.663   4.067   4.510 -0.3309  0.4234  0.3533
    1SOL     OW11153   2.002   3.143   4.268 -0.1881  0.1973 -0.0888
    1SOL    HW211154   2.057   3.131   4.190  0.4627  1.3446  0.1971
    1SOL    HW311155   1.966   3.056   4.284  1.0854 -0.4512 -0.6210
    1SOL    MW411156   2.005   3.130   4.260  0.0658  0.2630 -0.1211
    1SOL     OW11157   3.394   3.953   4.797  0.0619  0.0963 -0.0057
    1SOL    HW211158   3.320   4.014   4.793  1.2390  1.6457  1.0838
    1SOL    HW311159   3.363   3.882   4.853 -1.2012 -0.1647 -0.9978
    1SOL    MW411160   3.380   3.951   4.804  0.0505  0.2661  0.0076
    1SOL     OW11161   3.050   3.869   4.526  0.8106  0.6129  0.1659
    1SOL    HW211162   3.020   3.780   4.513  0.1858  1.0114 -1.2650
    1SOL    HW311163   3.145   3.862   4.532  0.9028  0.0075 -1.6041
    1SOL    MW411164   3.059   3.857   4.525  0.7403  0.5858 -0.2561
    1SOL     OW11165   2.414   4.083   4.648 -0.0753  0.2178 -0.3964
    1SOL    HW211166   2.327   4.045   4.634  0.2150  0.6146 -3.6379
    1SOL    HW311167   2.397   4.169   4.685 -1.0631  0.2175 -0.8391
    1SOL    MW411168   2.400   4.089   4.651 -0.1676  0.2699 -0.8831
    1SOL     OW11169   2.376   4.337   4.780 -0.1990  0.3895 -0.0633
    1SOL    HW211170   2.376   4.397   4.705 -0.9666 -0.5902 -0.8591
    1SOL    HW311171   2.435   4.378   4.843  0.0021  1.5237 -0.9674
    1SOL    MW411172   2.384   4.350   4.778 -0.2737  0.4101 -0.2871
    1SOL     OW11173   2.945   0.401   4.477  0.3797 -0.6272 -0.3360
    1SOL    HW211174   2.932   0.441   4.391  1.4476  0.3317 -0.0716
    1SOL    HW311175   3.027   0.439   4.508 -0.0223 -0.9408  1.1252
    1SOL    MW411176   2.954   0.411   4.470  0.4678 -0.5421 -0.1082
    1SOL     OW11177   2.861   4.575   4.511  0.4980 -0.5716 -0.3083
    1SOL    HW211178   2.916   4.653   4.508 -0.1842 -0.1306 -3.6157
    1SOL    HW311179   2.775   4.608   4.539  0.4812 -0.2904 -0.6769
    1SOL    MW411180   2.857   4.590   4.514  0.4060 -0.4764 -0.7930
    1SOL     OW11181   3.043   0.119   4.479 -0.5075 -0.1075  0.0036
    1SOL    HW211182   2.998   0.200   4.505 -0.0825  0.5252 -1.1809
    1SOL    HW311183   3.110   0.106   4.546 -0.3610  0.7158  0.0243
    1SOL    MW411184   3.046   0.128   4.491 -0.4320  0.0846 -0.1502
    1SOL     OW11185   2.672   0.986   4.596 -0.5381  0.6115 -0.3692
    1SOL    HW211186   2.755   0.942   4.613 -0.3761  1.1472  0.2110
    1SOL    HW311187   2.660   0.979   4.501 -1.0155 -1.5922 -0.1662
    1SOL    MW411188   2.681   0.979   4.586 -0.5796  0.3914 -0.2656
    1SOL     OW11189   3.379   0.737   4.688 -0.4971  0.1379 -0.1835
    1SOL    HW211190   3.456   0.686   4.714 -1.0426 -0.3259  0.5197
    1SOL    HW311191   3.416   0.812   4.641  0.3225 -0.7539 -0.9815
    1SOL    MW411192   3.394   0.741   4.685 -0.4609 -0.0409 -0.1965
    1SOL     OW11193   2.253   0.880   4.518  0.2157  0.0046 -0.1707
    1SOL    HW211194   2.260   0.961   4.568 -0.6640  0.8467 -1.3968
    1SOL    HW311195   2.177   0.835   4.555  0.1454  0.1745 -0.1079
    1SOL    MW411196   2.244   0.885   4.529  0.0904  0.1380 -0.3242
    1SOL     OW11197   2.654   1.272   4.617 -0.1874  0.0611 -0.3540
    1SOL    HW211198   2.740   1.306   4.591  0.2152 -0.2568  0.5505
    1SOL    HW311199   2.662   1.177   4.609 -0.1344 -0.0227  0.7081
    1SOL    MW411200   2.667   1.264   4.612 -0.1271  0.0080 -0.0944
    1SOL     OW11201   2.900   1.395   4.531 -0.3367 -0.1965 -0.0187
    1SOL    HW211202   2.847   1.474   4.519 -0.5198 -0.3426 -0.1798
    1SOL    HW311203   2.919   1.365   4.442 -2.0492 -1.5145  0.0297
    1SOL    MW411204   2.895   1.402   4.517 -0.5867 -0.3897 -0.0339
    1SOL     OW11205   2.968   1.810   4.546  0.2853  0.1166 -0.2825
    1SOL    HW211206   2.887   1.760   4.532  0.4818  0.4957 -3.1595
    1SOL    HW311207   2.940   1.901   4.544  0.4337  0.2065  1.3506
    1SOL    MW411208   2.953   1.815   4.544  0.3309  0.1786 -0.4463
    1SOL     OW11209   2.552   1.897   4.518 -0.2260  0.4063  0.5272
    1SOL    HW211210   2.538   1.935   4.432 -1.8559  0.3667  0.7496
    1SOL    HW311211   2.520   1.963   4.580  0.4393  0.2246  1.0766
    1SOL    MW411212   2.546   1.911   4.515 -0.3533  0.3772  0.6285
    1SOL     OW11213   2.472   2.130   4.659 -0.5395 -0.3101 -0.2066
    1SOL    HW211214   2.418   2.120   4.738 -0.6995  1.8548 -0.0315
    1SOL    HW311215   2.413   2.170   4.595  0.6343  1.4071 -0.2405
    1SOL    MW411216   2.457   2.134   4.661 -0.4060  0.2019 -0.1884
    1SOL     OW11217   2.726   2.226   4.577  0.2884 -0.2475  0.1632
    1SOL    HW211218   2.679   2.299   4.538  0.0057 -0.1453  0.6991
    1SOL    HW311219   2.658   2.172   4.617  0.5449 -0.5425  0.2051
    1SOL    MW411220   2.711   2.228   4.577  0.2851 -0.2728  0.2398
    1SOL     OW11221   2.931   2.076   4.480  0.5102  0.3179 -0.3180
    1SOL    HW211222   2.920   2.098   4.388  0.1858 -0.4714 -0.4745
    1SOL    HW311223   2.873   2.136   4.526 -0.2172 -0.0734 -0.7202
    1SOL    MW411224   2.922   2.086   4.474  0.3712  0.1619 -0.3910
    1SOL     OW11225   2.358   2.254   4.436  0.4725  0.3063 -0.3271
    1SOL    HW211226   2.306   2.297   4.368  1.4225  1.7672 -0.1516
    1SOL    HW311227   2.383   2.170   4.397  0.4490  0.8396 -1.5315
    1SOL    MW411228   2.354   2.249   4.422  0.5949  0.5691 -0.4630
    1SOL     OW11229   2.986   2.930   4.445  0.4234 -0.1668 -0.6355
    1SOL    HW211230   2.904   2.894   4.478 -0.0378  0.1336 -1.4533
    1SOL    HW311231   3.052   2.865   4.468  0.1538  0.1343  1.0911
    1SOL    MW411232   2.984   2.917   4.453  0.3271 -0.0873 -0.5150
    1SOL     OW11233   2.243   3.067   4.586 -0.3415 -0.3640  0.1698
    1SOL    HW211234   2.213   3.149   4.547 -1.5114 -0.7627  0.2141
    1SOL    HW311235   2.168   3.036   4.637 -0.9996 -2.9678 -2.2418
    1SOL    MW411236   2.229   3.073   4.587 -0.5827 -0.7603 -0.1426
    1SOL     OW11237   2.852   3.343   4.500 -0.0265 -0.5932 -0.3690
    1SOL    HW211238   2.935   3.296   4.494  1.1623  1.4926 -0.8429
    1SOL    HW311239   2.809   3.325   4.417  0.8043 -0.1803 -0.9033
    1SOL    MW411240   2.858   3.335   4.488  0.2398 -0.2635 -0.5021
    1SOL     OW11241   2.501   2.691   4.522  0.8153  0.2639 -0.3486
    1SOL    HW211242   2.493   2.728   4.434  0.1081  0.3202 -0.2650
    1SOL    HW311243   2.575   2.738   4.561  1.1236  0.2475 -0.9027
    1SOL    MW411244   2.510   2.702   4.516  0.7622  0.2692 -0.4106
    1SOL     OW11245   2.720   3.784   4.605  0.3501  0.0171  0.1445
    1SOL    HW211246   2.704   3.867   4.559 -0.8837  0.8324  1.9741
    1SOL    HW311247   2.658   3.785   4.677  1.4766 -1.7657  1.1635
    1SOL    MW411248   2.709   3.795   4.608  0.3357 -0.1101  0.5202
    1SOL     OW11249   3.333   3.859   4.535 -0.3250  0.4825 -0.0897
    1SOL    HW211250   3.337   3.766   4.516  0.1044  0.4658  0.0840
    1SOL    HW311251   3.372   3.868   4.622 -0.2557  0.8376 -0.1552
    1SOL    MW411252   3.339   3.848   4.544 -0.2594  0.5274 -0.0749
    1SOL     OW11253   3.794   3.801   4.676  0.2153  0.0035 -0.3257
    1SOL    HW211254   3.826   3.729   4.731  0.4384  0.0460 -0.4002
    1SOL    HW311255   3.738   3.758   4.612 -1.7738  0.1870  1.2464
    1SOL    MW411256   3.791   3.786   4.675 -0.0181  0.0334 -0.1283
    1SOL     OW11257   2.910   3.624   4.495 -0.0737  0.3402  0.0742
    1SOL    HW211258   2.838   3.663   4.544 -0.0494  0.3168  0.1286
    1SOL    HW311259   2.903   3.530   4.512 -0.1800  0.3112 -0.1214
    1SOL    MW411260   2.899   3.616   4.504 -0.0846  0.3333  0.0553
    1SOL     OW11261   2.913   4.117   4.658  0.0550 -0.0647 -0.2924
    1SOL    HW211262   2.827   4.130   4.617 -1.3603 -2.2256  1.8666
    1SOL    HW311263   2.936   4.026   4.636  0.4937 -0.3925  1.5022
    1SOL    MW411264   2.905   4.107   4.649 -0.0741 -0.3929  0.2289
    1SOL     OW11265   3.003   4.335   4.512  0.3361  0.3519 -0.1933
    1SOL    HW211266   2.974   4.259   4.561  0.5060 -1.5643 -2.9004
    1SOL    HW311267   2.940   4.404   4.532  0.5182 -0.2985  2.7597
    1SOL    MW411268   2.991   4.334   4.521  0.3824  0.0134 -0.1607
    1SOL     OW11269   3.227   0.449   4.538 -0.3073 -0.2373 -0.4212
    1SOL    HW211270   3.255   0.478   4.451  0.6118 -1.4654 -0.5538
    1SOL    HW311271   3.211   0.530   4.586  0.7628  0.4784 -1.2315
    1SOL    MW411272   3.229   0.464   4.533 -0.0451 -0.3049 -0.5455
    1SOL     OW11273   2.473   0.463   4.492 -0.3187 -0.3300 -0.0954
    1SOL    HW211274   2.549   0.416   4.527 -0.7004 -0.1284  1.0077
    1SOL    HW311275   2.490   0.555   4.512 -0.3129 -0.1572 -0.8742
    1SOL    MW411276   2.485   0.469   4.499 -0.3684 -0.2806 -0.0525
    1SOL     OW11277   1.255   0.827   4.842  0.3013  0.6134  0.6681
    1SOL    HW211278   1.312   0.784   4.778  0.5902  0.5220  0.9812
    1SOL    HW311279   1.296   0.912   4.858  0.2728  0.6053  0.7884
    1SOL    MW411280   1.268   0.832   4.836  0.3358  0.6003  0.7253
    1SOL     OW11281   2.692   0.354   4.600  0.0469 -0.4004  0.4000
    1SOL    HW211282   2.679   0.261   4.582 -1.4434  0.1532 -1.5508
    1SOL    HW311283   2.772   0.377   4.554 -0.2823 -0.4461 -0.2035
    1SOL    MW411284   2.701   0.345   4.592 -0.1931 -0.3334  0.0629
    1SOL     OW11285   3.124   0.668   4.677 -0.0521  0.0599  0.0998
    1SOL    HW211286   3.106   0.631   4.764  0.1934  0.9131  0.5236
    1SOL    HW311287   3.216   0.692   4.679 -0.0695  0.1761 -0.3644
    1SOL    MW411288   3.133   0.666   4.689 -0.0219  0.1878  0.0944
    1SOL     OW11289   3.320   1.374   4.567  0.1891 -0.1565  0.3654
    1SOL    HW211290   3.245   1.324   4.600 -0.7759  1.3618  0.5405
    1SOL    HW311291   3.395   1.316   4.578 -1.2627 -2.5351 -1.7365
    1SOL    MW411292   3.320   1.360   4.572 -0.1295 -0.2700  0.1111
    1SOL     OW11293   2.743   1.626   4.500  0.5408 -0.7535 -0.1065
    1SOL    HW211294   2.723   1.648   4.409  1.2322  0.8025  0.0955
    1SOL    HW311295   2.663   1.647   4.548  0.5254 -0.5591 -0.2139
    1SOL    MW411296   2.730   1.632   4.494  0.6301 -0.5225 -0.0944
    1SOL     OW11297   3.690   1.059   4.739 -0.4550 -0.3995  0.1784
    1SOL    HW211298   3.779   1.082   4.766 -0.3927 -1.4027  0.8377
    1SOL    HW311299   3.699   0.974   4.697 -1.0640 -0.3667 -0.0219
    1SOL    MW411300   3.703   1.051   4.737 -0.5269 -0.5276  0.2389
    1SOL     OW11301   3.417   1.634   4.498  0.3300  0.0577  0.0995
    1SOL    HW211302   3.369   1.709   4.534 -1.0787 -0.0792 -1.4678
    1SOL    HW311303   3.368   1.557   4.528  0.9868 -0.1901  0.5519
    1SOL    MW411304   3.404   1.634   4.507  0.2308  0.0070 -0.0477
    1SOL     OW11305   3.249   1.847   4.621 -0.3790 -0.0380 -0.3358
    1SOL    HW211306   3.159   1.817   4.620  0.2163 -2.0482  1.3453
    1SOL    HW311307   3.245   1.938   4.591 -2.8705 -0.2565 -0.7555
    1SOL    MW411308   3.237   1.855   4.617 -0.6292 -0.3321 -0.1688
    1SOL     OW11309   3.223   2.097   4.483 -0.4556  0.4962 -0.0060
    1SOL    HW211310   3.129   2.087   4.494 -0.2051 -0.6325  1.3547
    1SOL    HW311311   3.238   2.089   4.389 -1.4874 -1.4251 -0.0164
    1SOL    MW411312   3.213   2.095   4.472 -0.5586  0.0935  0.1721
    1SOL     OW11313   3.674   1.864   4.569 -0.1216  0.3633 -0.1898
    1SOL    HW211314   3.628   1.947   4.583 -2.6163 -1.1263  0.6908
    1SOL    HW311315   3.644   1.808   4.641  2.3994 -0.9659 -0.1108
    1SOL    MW411316   3.664   1.868   4.581 -0.1183 -0.0085 -0.0634
    1SOL     OW11317   2.941   2.728   4.700  0.7929  0.2048 -0.4779
    1SOL    HW211318   2.972   2.659   4.758  2.2760  1.3763  0.1462
    1SOL    HW311319   2.992   2.717   4.620 -0.3882 -0.6448 -1.1405
    1SOL    MW411320   2.952   2.717   4.697  0.8326  0.2470 -0.4826
    1SOL     OW11321   3.499   2.516   4.475 -0.5771 -0.2676  0.1632
    1SOL    HW211322   3.431   2.450   4.482 -0.0462 -1.0149 -1.4674
    1SOL    HW311323   3.452   2.598   4.458 -1.0941 -0.7074 -0.5381
    1SOL    MW411324   3.484   2.518   4.474 -0.5753 -0.4239 -0.1445
    1SOL     OW11325   3.283   2.365   4.490  0.0507  0.1102  0.0820
    1SOL    HW211326   3.219   2.426   4.528 -0.0499 -0.4734  0.8628
    1SOL    HW311327   3.243   2.279   4.501 -0.4848  0.0148 -2.3681
    1SOL    MW411328   3.269   2.362   4.496 -0.0334  0.0207 -0.1383
    1SOL     OW11329   3.592   2.906   4.601 -0.2596 -0.3835 -0.3470
    1SOL    HW211330   3.643   2.899   4.682 -1.3454 -0.5664  0.3414
    1SOL    HW311331   3.577   3.000   4.591  0.3624 -0.3146 -0.6503
    1SOL    MW411332   3.597   2.917   4.610 -0.3207 -0.3986 -0.2961
    1SOL     OW11333   3.090   3.188   4.493 -0.2218  0.0055 -0.1955
    1SOL    HW211334   3.056   3.099   4.495  2.3418 -1.0425 -1.6921
    1SOL    HW311335   3.091   3.212   4.401  0.8143  0.8988  0.0386
    1SOL    MW411336   3.085   3.179   4.481  0.2532 -0.0150 -0.3619
    1SOL     OW11337   3.349   2.747   4.486 -0.2646 -0.1653  0.3846
    1SOL    HW211338   3.357   2.785   4.399  0.9713 -2.3370 -0.4929
    1SOL    HW311339   3.413   2.796   4.539  0.1021  0.1099 -0.3044
    1SOL    MW411340   3.359   2.759   4.482 -0.0529 -0.4158  0.1774
    1SOL     OW11341   3.967   2.622   4.551 -0.0426  0.2621  0.2663
    1SOL    HW211342   3.922   2.687   4.496  0.0135 -1.2867 -1.6874
    1SOL    HW311343   4.060   2.639   4.536 -0.0079  1.0089  1.3173
    1SOL    MW411344   3.973   2.633   4.541 -0.0308  0.1562  0.1469
    1SOL     OW11345   3.578   3.187   4.524  0.0067  0.2302 -0.1939
    1SOL    HW211346   3.631   3.261   4.551 -0.3474  1.5700 -2.9920
    1SOL    HW311347   3.558   3.203   4.432 -2.3131 -2.0040 -0.1671
    1SOL    MW411348   3.582   3.199   4.515 -0.3462  0.1123 -0.5603
    1SOL     OW11349   3.510   4.079   4.466 -0.2035  0.5137  0.1936
    1SOL    HW211350   3.560   4.073   4.547 -1.0042  1.0275  0.7325
    1SOL    HW311351   3.440   4.015   4.477 -1.0725  1.4987  0.4598
    1SOL    MW411352   3.507   4.070   4.478 -0.4241  0.7114  0.2999
    1SOL     OW11353   3.190   4.142   4.807 -0.0342  0.1294 -0.1894
    1SOL    HW211354   3.099   4.144   4.776  0.2464 -0.1375 -1.0227
    1SOL    HW311355   3.216   4.234   4.809 -0.6884  0.3061  1.1546
    1SOL    MW411356   3.181   4.154   4.803 -0.0834  0.1178 -0.1221
    1SOL     OW11357   3.221   4.441   4.664  0.1183  0.0159  0.0627
    1SOL    HW211358   3.299   4.426   4.611 -0.5005  2.0497 -1.4851
    1SOL    HW311359   3.148   4.419   4.606 -0.5185 -0.1069  0.8951
    1SOL    MW411360   3.222   4.436   4.649 -0.0474  0.2680 -0.0319
    1SOL     OW11361   3.445   4.374   4.483  0.1309 -0.1679 -0.2984
    1SOL    HW211362   3.455   4.280   4.464 -1.4315 -0.0085 -2.0987
    1SOL    HW311363   3.533   4.404   4.504  0.5022 -2.2523  1.4103
    1SOL    MW411364   3.458   4.365   4.483 -0.0265 -0.4220 -0.3104
    1SOL     OW11365   3.668   4.062   4.710  0.4272 -0.3337 -0.2365
    1SOL    HW211366   3.717   3.980   4.699  0.4218 -0.6593  1.9564
    1SOL    HW311367   3.593   4.038   4.765 -0.1658  0.9328 -0.4675
    1SOL    MW411368   3.664   4.048   4.716  0.3483 -0.2098  0.0219
    1SOL     OW11369   3.431   0.265   4.708  0.4315  0.1854 -0.5182
    1SOL    HW211370   3.370   0.192   4.717  0.5456  0.1764  0.2520
    1SOL    HW311371   3.391   0.322   4.642 -0.6239  0.3810  0.2616
    1SOL    MW411372   3.417   0.263   4.701  0.3071  0.2100 -0.3138
    1SOL     OW11373   3.165   1.007   4.510 -0.0564  0.3752 -0.2101
    1SOL    HW211374   3.139   1.084   4.561  0.8677  1.4763 -1.3792
    1SOL    HW311375   3.256   0.992   4.533  0.6946  1.5278 -2.2911
    1SOL    MW411376   3.173   1.015   4.520  0.1647  0.6725 -0.6390
    1SOL     OW11377   3.086   1.225   4.657 -0.0182  0.0025 -0.0126
    1SOL    HW211378   3.023   1.286   4.618  0.1945  0.0522 -0.2733
    1SOL    HW311379   3.093   1.255   4.748  0.2851  0.5285 -0.2100
    1SOL    MW411380   3.078   1.237   4.664  0.0501  0.0784 -0.0734
    1SOL     OW11381   4.115   1.482   4.508 -0.5597 -0.1670 -0.1364
    1SOL    HW211382   4.192   1.426   4.500 -0.4535 -0.1543  0.6771
    1SOL    HW311383   4.044   1.421   4.529 -0.4407 -0.0019  0.7658
    1SOL    MW411384   4.116   1.467   4.510 -0.5302 -0.1435  0.0906
    1SOL     OW11385   3.559   1.237   4.572  0.3290 -0.4114 -0.2774
    1SOL    HW211386   3.601   1.320   4.548  0.2679  0.0154  1.0389
    1SOL    HW311387   3.623   1.194   4.630  0.4067 -1.3344 -1.0392
    1SOL    MW411388   3.573   1.242   4.577  0.3314 -0.4768 -0.2036
    1SOL     OW11389   4.020   0.904   4.518 -0.2933  0.2224  0.5309
    1SOL    HW211390   4.111   0.878   4.534 -0.8516 -2.1769 -0.0321
    1SOL    HW311391   4.016   0.923   4.425 -0.0231  1.8620  0.8380
    1SOL    MW411392   4.032   0.903   4.508 -0.3314  0.1222  0.4973
    1SOL     OW11393   4.264   0.530   4.521 -0.8732  0.3345  0.3651
    1SOL    HW211394   4.178   0.528   4.561 -0.7639  0.6424  0.6136
    1SOL    HW311395   4.247   0.537   4.427 -1.1236 -0.1129  0.3795
    1SOL    MW411396   4.251   0.531   4.513 -0.8917  0.3161  0.4001
    1SOL     OW11397   3.672   1.510   4.500 -0.3303  0.1354 -0.0606
    1SOL    HW211398   3.585   1.546   4.513 -0.7877 -0.5054 -1.3099
    1SOL    HW311399   3.702   1.547   4.418  0.1881 -0.3826 -0.1120
    1SOL    MW411400   3.665   1.519   4.491 -0.3226 -0.0175 -0.2327
    1SOL     OW11401   3.965   1.869   4.569  0.4800 -0.1113 -0.3183
    1SOL    HW211402   3.870   1.869   4.562  0.6188 -2.1231 -2.9840
    1SOL    HW311403   3.986   1.949   4.616 -2.5666 -0.0946  1.1051
    1SOL    MW411404   3.955   1.879   4.574  0.0963 -0.3746 -0.4821
    1SOL     OW11405   3.572   2.123   4.631 -0.4018 -0.1139  0.2137
    1SOL    HW211406   3.595   2.145   4.540 -1.5726 -0.2906 -0.1253
    1SOL    HW311407   3.477   2.120   4.632 -0.3820 -0.6099  1.3447
    1SOL    MW411408   3.563   2.126   4.619 -0.5536 -0.2024  0.3181
    1SOL     OW11409   4.020   2.131   4.642 -0.2100 -0.1799  0.4230
    1SOL    HW211410   3.979   2.213   4.616  0.5883 -0.0046 -0.3451
    1SOL    HW311411   4.105   2.133   4.598 -0.8545 -2.1664 -0.9753
    1SOL    MW411412   4.026   2.142   4.633 -0.1898 -0.4187  0.1369
    1SOL     OW11413   0.015   1.765   4.546 -0.2948 -0.0685 -0.3122
    1SOL    HW211414   0.027   1.720   4.463 -0.7876  0.0247 -0.4294
    1SOL    HW311415  -0.077   1.752   4.569 -0.1857 -0.0223  0.1764
    1SOL    MW411416   0.005   1.757   4.538 -0.3454 -0.0502 -0.2627
    1SOL     OW11417   3.933   2.342   4.512 -0.2244  0.0404  0.0319
    1SOL    HW211418   3.977   2.422   4.539  0.5446 -0.0276 -0.9780
    1SOL    HW311419   3.844   2.350   4.548 -0.1026  1.2590  0.0838
    1SOL    MW411420   3.927   2.353   4.520 -0.1068  0.1922 -0.0949
    1SOL     OW11421   3.790   2.623   4.758 -0.0207  0.1168 -0.3568
    1SOL    HW211422   3.736   2.546   4.738 -0.1474  0.1829 -0.2673
    1SOL    HW311423   3.853   2.627   4.686  0.2787 -0.3388 -0.1177
    1SOL    MW411424   3.791   2.613   4.746  0.0021  0.0658 -0.3133
    1SOL     OW11425   3.820   2.851   4.445 -0.3104  0.2557  0.4346
    1SOL    HW211426   3.873   2.913   4.496 -1.2120  1.2444  0.1885
    1SOL    HW311427   3.734   2.854   4.485  0.0221 -2.0009  1.3654
    1SOL    MW411428   3.816   2.860   4.457 -0.3853  0.0885  0.5245
    1SOL     OW11429   3.943   3.010   4.644 -0.4685 -0.0355 -0.0759
    1SOL    HW211430   3.905   2.974   4.724 -1.3123 -1.3809 -1.0657
    1SOL    HW311431   4.028   2.967   4.636 -1.1064 -1.2025 -0.7903
    1SOL    MW411432   3.949   3.000   4.654 -0.6640 -0.3667 -0.3009
    1SOL     OW11433   3.340   3.339   4.573 -0.3622  0.5792  0.2719
    1SOL    HW211434   3.255   3.295   4.586 -1.2032  1.6305 -1.4808
    1SOL    HW311435   3.401   3.267   4.557 -1.0213 -0.1658  1.0063
    1SOL    MW411436   3.337   3.323   4.573 -0.5600  0.6194  0.1373
    1SOL     OW11437   3.741   3.419   4.596 -0.0096 -0.3519  0.2451
    1SOL    HW211438   3.757   3.456   4.683  0.8027 -1.4754  0.5855
    1SOL    HW311439   3.821   3.369   4.576 -0.6601 -1.0555 -0.6481
    1SOL    MW411440   3.754   3.417   4.605  0.0119 -0.5929  0.1721
    1SOL     OW11441   3.385   3.593   4.453  0.1401  0.0666 -0.4241
    1SOL    HW211442   3.371   3.520   4.513  0.0950  0.3556 -0.0762
    1SOL    HW311443   3.479   3.610   4.457  0.0409  0.5179  0.0818
    1SOL    MW411444   3.396   3.586   4.461  0.1211  0.1643 -0.3114
    1SOL     OW11445   3.667   3.667   4.450  0.1573 -0.0261 -0.4341
    1SOL    HW211446   3.723   3.678   4.373  0.0616 -1.2327 -0.6826
    1SOL    HW311447   3.694   3.583   4.488 -1.0563 -0.3318 -0.2178
    1SOL    MW411448   3.678   3.657   4.445 -0.0155 -0.2255 -0.4382
    1SOL     OW11449   0.049   2.984   4.671  0.0503  0.0887  0.1072
    1SOL    HW211450   0.032   3.071   4.637 -1.0133 -0.0697  0.2427
    1SOL    HW311451   0.130   2.993   4.722 -0.5109  1.1546  0.7972
    1SOL    MW411452   0.058   2.996   4.673 -0.1641  0.2084  0.2160
    1SOL     OW11453   4.013   3.913   4.544  0.3535 -0.1981 -0.0855
    1SOL    HW211454   4.029   3.984   4.607  0.2122 -0.2231 -0.0196
    1SOL    HW311455   3.937   3.867   4.580 -0.2245  0.2766 -0.6874
    1SOL    MW411456   4.005   3.917   4.557  0.2584 -0.1385 -0.1564
    1SOL     OW11457   3.716   4.473   4.503 -0.6475  0.1822 -0.3523
    1SOL    HW211458   3.737   4.465   4.410 -1.7627  2.8144 -0.8682
    1SOL    HW311459   3.693   4.565   4.515 -1.1732 -0.2592  2.4050
    1SOL    MW411460   3.716   4.484   4.493 -0.8640  0.4711 -0.0567
    1SOL     OW11461   3.221   0.055   4.692 -0.1458 -0.5424 -0.1277
    1SOL    HW211462   3.215  -0.040   4.687 -0.7815 -0.4434 -1.7328
    1SOL    HW311463   3.166   0.079   4.766 -0.8295 -1.3556 -0.3621
    1SOL    MW411464   3.213   0.046   4.701 -0.3200 -0.6366 -0.3705
    1SOL     OW11465   3.434   0.974   4.554 -0.1874 -0.2942  0.2129
    1SOL    HW211466   3.484   1.050   4.584 -0.8126 -0.2289  1.1163
    1SOL    HW311467   3.460   0.963   4.463 -0.1015  1.0192  0.0652
    1SOL    MW411468   3.444   0.983   4.546 -0.2587 -0.1122  0.3123
    1SOL     OW11469   3.720   0.860   4.530 -0.3209 -0.1971  0.0064
    1SOL    HW211470   3.811   0.842   4.509 -0.3405 -1.0604  0.6212
    1SOL    HW311471   3.682   0.892   4.448  0.4895 -0.0010 -0.2954
    1SOL    MW411472   3.727   0.862   4.516 -0.2167 -0.2851  0.0477
    1SOL     OW11473   0.151   0.560   4.556 -0.4854  0.0042 -0.5016
    1SOL    HW211474   0.118   0.485   4.604 -1.4454  0.6087 -0.2036
    1SOL    HW311475   0.154   0.531   4.465 -2.8333  0.2522 -0.6870
    1SOL    MW411476   0.147   0.546   4.550 -0.9219  0.1167 -0.4869
    1SOL     OW11477   0.425   0.691   4.615 -0.0519  0.0322 -0.0504
    1SOL    HW211478   0.481   0.616   4.595  0.4015  0.3400  0.0589
    1SOL    HW311479   0.335   0.658   4.605  0.1379 -0.6646  0.5134
    1SOL    MW411480   0.420   0.676   4.611  0.0329 -0.0191  0.0386
    1SOL     OW11481   4.009   0.449   4.614 -0.3897  0.0003 -0.4303
    1SOL    HW211482   3.976   0.359   4.615 -0.1603 -0.0790  1.2570
    1SOL    HW311483   3.933   0.502   4.587 -1.3586 -0.3966  1.4585
    1SOL    MW411484   3.995   0.444   4.610 -0.4878 -0.0626  0.0415
    1SOL     OW11485   3.890   1.323   4.558  0.0062  0.0757  0.2857
    1SOL    HW211486   3.874   1.308   4.465 -0.9199 -1.0147  0.6094
    1SOL    HW311487   3.823   1.386   4.584  1.2157  1.5554 -0.1121
    1SOL    MW411488   3.879   1.329   4.549  0.0434  0.1270  0.2761
    1SOL     OW11489   4.375   1.303   4.522  0.0533  0.1111  0.2944
    1SOL    HW211490   4.467   1.324   4.540 -0.6864  1.8713  2.2597
    1SOL    HW311491   4.353   1.234   4.585 -0.1946  0.2274  0.3345
    1SOL    MW411492   4.385   1.297   4.533 -0.0768  0.3586  0.5593
    1SOL     OW11493   0.487   1.682   4.505 -0.6536 -0.1918  0.3399
    1SOL    HW211494   0.476   1.666   4.411 -0.8807  0.7518  0.2044
    1SOL    HW311495   0.507   1.775   4.511 -0.6985 -0.2393  1.2356
    1SOL    MW411496   0.488   1.692   4.493 -0.6895 -0.0737  0.4401
    1SOL     OW11497   4.219   1.711   4.614 -0.1187 -0.2644  0.4930
    1SOL    HW211498   4.193   1.622   4.593  0.4616 -0.0181 -1.4314
    1SOL    HW311499   4.137   1.760   4.616 -0.2872 -0.4937 -0.3553
    1SOL    MW411500   4.205   1.706   4.611 -0.0644 -0.2623  0.1264
    1SOL     OW11501   3.091   2.658   4.478  0.2152  0.7387 -0.1275
    1SOL    HW211502   3.181   2.687   4.488  0.0895  1.2959 -0.5737
    1SOL    HW311503   3.095   2.587   4.414  0.2242  1.3903 -0.8563
    1SOL    MW411504   3.103   2.653   4.471  0.2000  0.8979 -0.2823
    1SOL     OW11505   4.241   2.117   4.264  0.4543 -0.1199 -0.3696
    1SOL    HW211506   4.159   2.071   4.281 -0.9976  2.1645 -0.9609
    1SOL    HW311507   4.270   2.148   4.350 -0.0772  0.3147 -0.3448
    1SOL    MW411508   4.234   2.115   4.278  0.1926  0.2389 -0.4444
    1SOL     OW11509   4.269   2.209   4.532 -0.6131 -0.2365  0.3227
    1SOL    HW211510   4.361   2.199   4.554 -0.4150  0.0283 -0.3797
    1SOL    HW311511   4.251   2.302   4.541 -0.7796 -0.2687  0.3302
    1SOL    MW411512   4.279   2.220   4.536 -0.6089 -0.2055  0.2313
    1SOL     OW11513   3.968   2.047   4.354  0.1746  0.2083  0.0364
    1SOL    HW211514   3.965   1.971   4.412  0.2911 -0.1900 -0.4724
    1SOL    HW311515   3.983   2.121   4.412  0.4447 -0.2047  0.4986
    1SOL    MW411516   3.969   2.047   4.369  0.2255  0.1013  0.0300
    1SOL     OW11517   3.686   2.374   4.657  0.0398  0.0183 -0.6180
    1SOL    HW211518   3.629   2.414   4.592 -0.5816  0.9785  0.5028
    1SOL    HW311519   3.652   2.285   4.669 -2.3620  1.1534  1.3550
    1SOL    MW411520   3.674   2.367   4.650 -0.3591  0.2949 -0.2098
    1SOL     OW11521   3.793   2.896   4.862  0.2936  0.0345 -0.4961
    1SOL    HW211522   3.807   2.909   4.956  0.8827  1.4780 -0.7683
    1SOL    HW311523   3.795   2.801   4.850  1.2677 -0.1184  0.7921
    1SOL    MW411524   3.795   2.886   4.873  0.4997  0.2046 -0.3619
    1SOL     OW11525   4.186   2.837   4.545 -0.0518  0.3889  0.0416
    1SOL    HW211526   4.258   2.793   4.590 -0.5017 -0.9713 -0.5345
    1SOL    HW311527   4.225   2.873   4.466  0.2299  0.6170  0.2870
    1SOL    MW411528   4.200   2.836   4.541 -0.0739  0.2396 -0.0019
    1SOL     OW11529   3.965   3.272   4.529 -0.1305 -0.0158  0.1066
    1SOL    HW211530   3.963   3.258   4.434 -0.5758  0.1341  0.0910
    1SOL    HW311531   3.954   3.185   4.566 -1.1099  0.0526  0.0125
    1SOL    MW411532   3.963   3.259   4.521 -0.3185  0.0131  0.0920
    1SOL     OW11533   0.149   3.533   4.568  0.4635 -0.0319 -0.0068
    1SOL    HW211534   0.187   3.567   4.487 -0.8574 -1.4144 -1.2265
    1SOL    HW311535   0.056   3.554   4.561  0.1601 -1.1436  0.6523
    1SOL    MW411536   0.142   3.540   4.557  0.2492 -0.3607 -0.0811
    1SOL     OW11537   4.104   4.151   4.665 -0.2233  0.3611  0.0307
    1SOL    HW211538   4.146   4.162   4.750 -0.2923 -1.9949  0.4037
    1SOL    HW311539   4.018   4.191   4.675  0.2185  1.1482  0.6879
    1SOL    MW411540   4.098   4.158   4.677 -0.1745  0.1540  0.1669
    1SOL     OW11541   3.638   0.087   4.541  0.0120 -0.2231  0.5830
    1SOL    HW211542   3.593   0.155   4.591  1.2407  1.0952 -0.1067
    1SOL    HW311543   3.592   0.083   4.458  1.5608  1.5975 -0.3848
    1SOL    MW411544   3.626   0.095   4.537  0.3784  0.1910  0.3643
    1SOL     OW11545   4.104   3.601   4.813 -0.0907 -0.2262 -0.0095
    1SOL    HW211546   4.142   3.530   4.761 -0.1864 -1.2306  1.2841
    1SOL    HW311547   4.154   3.678   4.787  2.5576 -1.4132  1.2836
    1SOL    MW411548   4.116   3.602   4.802  0.2460 -0.5152  0.3319
    1SOL     OW11549   3.584   0.537   4.799  0.0246  0.0888  0.1280
    1SOL    HW211550   3.640   0.529   4.876  0.3986 -0.2770 -0.1782
    1SOL    HW311551   3.530   0.458   4.800 -0.4375  0.4009  0.3766
    1SOL    MW411552   3.584   0.526   4.809  0.0129  0.0817  0.1206
    1SOL     OW11553   4.252   4.441   4.269 -0.4279  0.4142 -0.2398
    1SOL    HW211554   4.348   4.440   4.268 -0.4122 -0.3847 -2.1874
    1SOL    HW311555   4.228   4.437   4.361  1.4239 -0.6303  0.2207
    1SOL    MW411556   4.261   4.440   4.281 -0.1817  0.1712 -0.4354
    1NA      NA11557   2.706   4.213   0.646 -0.2726  0.0389 -0.2688
    1NA      NA11558   0.509   2.549   0.284  0.4863 -0.2002  0.0279
   4.49070   4.66690  10.00000
